fcc Si                                  
   5.43000000000000     
     0.500000    0.500000    0.000000
     0.000000    0.500000    0.500000
     0.500000    0.000000    0.500000
   Si
     2
Direct
  0.000000  0.000000  0.000000
  0.250000  0.250000  0.250000
 
   32   32   32
 -.76926501442E+01 -.59549242950E+01 -.13065139780E+01 0.48015536497E+01 0.10632364978E+02
 0.14815337265E+02 0.16756365475E+02 0.16675746030E+02 0.15335269256E+02 0.13595183283E+02
 0.11875095680E+02 0.10330041662E+02 0.90392532709E+01 0.80325994606E+01 0.73157929280E+01
 0.68870794896E+01 0.67444060351E+01 0.68870715090E+01 0.73158010955E+01 0.80326353963E+01
 0.90392992735E+01 0.10330074053E+02 0.11875105538E+02 0.13595166247E+02 0.15335214137E+02
 0.16675650821E+02 0.16756256435E+02 0.14815256017E+02 0.10632335307E+02 0.48015667038E+01
 -.13064853003E+01 -.59549040449E+01 -.59549242950E+01 -.25467587054E+01 0.31542923935E+01
 0.94071776409E+01 0.14554503905E+02 0.17596026423E+02 0.18398329485E+02 0.17531820523E+02
 0.15885211704E+02 0.14117722325E+02 0.12454095260E+02 0.11002449015E+02 0.98124630866E+01
 0.89050518400E+01 0.82919603077E+01 0.79824972658E+01 0.79824815897E+01 0.82919445148E+01
 0.89050815199E+01 0.98125294314E+01 0.11002502135E+02 0.12454107782E+02 0.14117701345E+02
 0.15885159717E+02 0.17531732629E+02 0.18398238429E+02 0.17596004773E+02 0.14554589758E+02
 0.94073194388E+01 0.31543992410E+01 -.25467215835E+01 -.59549215056E+01 -.13065139780E+01
 0.31542923935E+01 0.89366214437E+01 0.14335029748E+02 0.18063719643E+02 0.19633665768E+02
 0.19338315535E+02 0.17947640348E+02 0.16243054792E+02 0.14555962138E+02 0.13019660007E+02
 0.11699808644E+02 0.10629722639E+02 0.98356483769E+01 0.93443867081E+01 0.91778030769E+01
 0.93443982663E+01 0.98356699255E+01 0.10629754863E+02 0.11699853077E+02 0.13019707662E+02
 0.14555985757E+02 0.16243025274E+02 0.17947560489E+02 0.19338232360E+02 0.19633640891E+02
 0.18063787350E+02 0.14335183202E+02 0.89368238857E+01 0.31544874057E+01 -.13063923089E+01
 -.29851537337E+01 0.48015536497E+01 0.94071776409E+01 0.14335029748E+02 0.18212509388E+02
 0.20278901159E+02 0.20528549245E+02 0.19524221560E+02 0.18016930834E+02 0.16429157459E+02
 0.14915724516E+02 0.13553295394E+02 0.12381749857E+02 0.11437746316E+02 0.10767294528E+02
 0.10417167564E+02 0.10417181068E+02 0.10767322291E+02 0.11437770788E+02 0.12381775870E+02
 0.13553336477E+02 0.14915767687E+02 0.16429166297E+02 0.18016890366E+02 0.19524161525E+02
 0.20528513301E+02 0.20278912411E+02 0.18212580567E+02 0.14335181228E+02 0.94074042844E+01
 0.48017761829E+01 0.20120563534E+01 0.20119615841E+01 0.10632364978E+02 0.14554503905E+02
 0.18063719643E+02 0.20278901159E+02 0.20944424940E+02 0.20380343778E+02 0.19202534893E+02
 0.17848099895E+02 0.16484663508E+02 0.15193651749E+02 0.14014079623E+02 0.12984280346E+02
 0.12164213117E+02 0.11628950271E+02 0.11442199973E+02 0.11628957382E+02 0.12164229258E+02
 0.12984306289E+02 0.14014112218E+02 0.15193683384E+02 0.16484683813E+02 0.17848099788E+02
 0.19202512774E+02 0.20380311086E+02 0.20944405051E+02 0.20278918108E+02 0.18063782410E+02
 0.14554597856E+02 0.10632457809E+02 0.75381157530E+01 0.63619618459E+01 0.75380585568E+01
 0.14815337265E+02 0.17596026423E+02 0.19633665768E+02 0.20528549245E+02 0.20380343778E+02
 0.19620210119E+02 0.18615630911E+02 0.17525872944E+02 0.16429159416E+02 0.15356127992E+02
 0.14335470737E+02 0.13428600746E+02 0.12732651129E+02 0.12351147498E+02 0.12351148510E+02
 0.12732658214E+02 0.13428619034E+02 0.14335496924E+02 0.15356153818E+02 0.16429182490E+02
 0.17525895064E+02 0.18615646107E+02 0.19620205650E+02 0.20380318832E+02 0.20528521467E+02
 0.19633646950E+02 0.17596001201E+02 0.14815284587E+02 0.12122423765E+02 0.10462383757E+02
 0.10462414576E+02 0.12122489261E+02 0.16756365475E+02 0.18398329485E+02 0.19338315535E+02
 0.19524221560E+02 0.19202534893E+02 0.18615630911E+02 0.17891215462E+02 0.17094967065E+02
 0.16243054792E+02 0.15344292337E+02 0.14445056889E+02 0.13645209317E+02 0.13077819568E+02
 0.12870880379E+02 0.13077831268E+02 0.13645227629E+02 0.14445077505E+02 0.15344314780E+02
 0.16243080324E+02 0.17094997298E+02 0.17891249398E+02 0.18615659018E+02 0.19202540098E+02
 0.19524190963E+02 0.19338250039E+02 0.18398237665E+02 0.16756257345E+02 0.14831598562E+02
 0.13274464295E+02 0.12676015280E+02 0.13274532574E+02 0.14831703960E+02 0.16675746030E+02
 0.17531820523E+02 0.17947640348E+02 0.18016930834E+02 0.17848099895E+02 0.17525872944E+02
 0.17094967065E+02 0.16553624877E+02 0.15885209746E+02 0.15106127970E+02 0.14286787070E+02
 0.13570101018E+02 0.13145143472E+02 0.13145150218E+02 0.13570115257E+02 0.14286799915E+02
 0.15106140177E+02 0.15885229075E+02 0.16553655039E+02 0.17095005643E+02 0.17525913649E+02
 0.17848131014E+02 0.18016937733E+02 0.17947614212E+02 0.17531763721E+02 0.16675666724E+02
 0.15497335218E+02 0.14337719926E+02 0.13615163822E+02 0.13615193801E+02 0.14337794878E+02
 0.15497424427E+02 0.15335269256E+02 0.15885211704E+02 0.16243054792E+02 0.16429157459E+02
 0.16484663508E+02 0.16429159416E+02 0.16243054792E+02 0.15885209746E+02 0.15335269256E+02
 0.14614183801E+02 0.13837889638E+02 0.13226259057E+02 0.12992991319E+02 0.13226256262E+02
 0.13837879272E+02 0.14614169038E+02 0.15335263148E+02 0.15885222212E+02 0.16243084933E+02
 0.16429202240E+02 0.16484713634E+02 0.16429204198E+02 0.16243084933E+02 0.15885220254E+02
 0.15335263148E+02 0.14614170995E+02 0.13837879272E+02 0.13226254304E+02 0.12992991319E+02
 0.13226261015E+02 0.13837889638E+02 0.14614181843E+02 0.13595183283E+02 0.14117722325E+02
 0.14555962138E+02 0.14915724516E+02 0.15193651749E+02 0.15356127992E+02 0.15344292337E+02
 0.15106127970E+02 0.14614183801E+02 0.13920446742E+02 0.13224092515E+02 0.12785219778E+02
 0.12785206150E+02 0.13224055013E+02 0.13920397787E+02 0.14614142280E+02 0.15106107050E+02
 0.15344293351E+02 0.15356149612E+02 0.15193697387E+02 0.14915790405E+02 0.14556027516E+02
 0.14117767450E+02 0.13595216260E+02 0.13005648646E+02 0.12411704252E+02 0.11914611237E+02
 0.11626217712E+02 0.11626180652E+02 0.11914525424E+02 0.12411621208E+02 0.13005597500E+02
 0.11875095680E+02 0.12454095260E+02 0.13019660007E+02 0.13553295394E+02 0.14014079623E+02
 0.14335470737E+02 0.14445056889E+02 0.14286787070E+02 0.13837889638E+02 0.13224092515E+02
 0.12692086744E+02 0.12481749421E+02 0.12692037286E+02 0.13224015644E+02 0.13837814981E+02
 0.14286733896E+02 0.14445028157E+02 0.14335461290E+02 0.14014086423E+02 0.13553318782E+02
 0.13019699135E+02 0.12454149616E+02 0.11875168548E+02 0.11297238577E+02 0.10750244625E+02
 0.10286745139E+02 0.99716830698E+01 0.98595405871E+01 0.99716273151E+01 0.10286650770E+02
 0.10750138727E+02 0.11297144621E+02 0.10330041662E+02 0.11002449015E+02 0.11699808644E+02
 0.12381749857E+02 0.12984280346E+02 0.13428600746E+02 0.13645209317E+02 0.13570101018E+02
 0.13226259057E+02 0.12785219778E+02 0.12481749421E+02 0.12481714039E+02 0.12785130484E+02
 0.13226153892E+02 0.13570014230E+02 0.13645155484E+02 0.13428574750E+02 0.12984264797E+02
 0.12381729024E+02 0.11699785143E+02 0.11002449044E+02 0.10330093595E+02 0.97060746507E+01
 0.91499423090E+01 0.86873894795E+01 0.83511246500E+01 0.81730533677E+01 0.81730539905E+01
 0.83511078460E+01 0.86873261800E+01 0.91498382172E+01 0.97059750474E+01 0.90392532709E+01
 0.98124630866E+01 0.10629722639E+02 0.11437746316E+02 0.12164213117E+02 0.12732651129E+02
 0.13077819568E+02 0.13145143472E+02 0.12992991319E+02 0.12785206150E+02 0.12692037286E+02
 0.12785130484E+02 0.12992871530E+02 0.13145023810E+02 0.13077734205E+02 0.12732611213E+02
 0.12164205230E+02 0.11437742591E+02 0.10629700434E+02 0.98124211937E+01 0.90392119133E+01
 0.83427941157E+01 0.77423163544E+01 0.72519771431E+01 0.68860691600E+01 0.66589799779E+01
 0.65818609738E+01 0.66589480317E+01 0.68860194954E+01 0.72519323720E+01 0.77422977032E+01
 0.83428106120E+01 0.80325994606E+01 0.89050518400E+01 0.98356483769E+01 0.10767294528E+02
 0.11628950271E+02 0.12351147498E+02 0.12870880379E+02 0.13145150218E+02 0.13226256262E+02
 0.13224055013E+02 0.13224015644E+02 0.13226153892E+02 0.13145023810E+02 0.12870773390E+02
 0.12351090417E+02 0.11628948757E+02 0.10767326648E+02 0.98356748928E+01 0.89050362816E+01
 0.80325283009E+01 0.72555874613E+01 0.65945047951E+01 0.60587860762E+01 0.56530563920E+01
 0.53804082181E+01 0.52433164014E+01 0.52432851253E+01 0.53803455352E+01 0.56530259367E+01
 0.60588267548E+01 0.65946029824E+01 0.72556951419E+01 0.73157929280E+01 0.82919603077E+01
 0.93443867081E+01 0.10417167564E+02 0.11442199973E+02 0.12351148510E+02 0.13077831268E+02
 0.13570115257E+02 0.13837879272E+02 0.13920397787E+02 0.13837814981E+02 0.13570014230E+02
 0.13077734205E+02 0.12351090417E+02 0.11442195358E+02 0.10417204355E+02 0.93444337655E+01
 0.82919851710E+01 0.73157780047E+01 0.64533583644E+01 0.57242299224E+01 0.51345164368E+01
 0.46827716275E+01 0.43646559131E+01 0.41757944170E+01 0.41131917727E+01 0.41758072463E+01
 0.43646932127E+01 0.46828389335E+01 0.51346017526E+01 0.57243103543E+01 0.64534126266E+01
 0.68870794896E+01 0.79824972658E+01 0.91778030769E+01 0.10417181068E+02 0.11628957382E+02
 0.12732658214E+02 0.13645227629E+02 0.14286799915E+02 0.14614169038E+02 0.14614142280E+02
 0.14286733896E+02 0.13645155484E+02 0.12732611213E+02 0.11628948757E+02 0.10417204355E+02
 0.91778431765E+01 0.79825435170E+01 0.68871278189E+01 0.59278289383E+01 0.51217991078E+01
 0.44712408811E+01 0.39692441567E+01 0.36052663985E+01 0.33690714092E+01 0.32529997609E+01
 0.32530298332E+01 0.33691519921E+01 0.36053684852E+01 0.39693274707E+01 0.44712758477E+01
 0.51217849735E+01 0.59277871923E+01 0.67444060351E+01 0.79824815897E+01 0.93443982663E+01
 0.10767322291E+02 0.12164229258E+02 0.13428619034E+02 0.14445077505E+02 0.15106140177E+02
 0.15335263148E+02 0.15106107050E+02 0.14445028157E+02 0.13428574750E+02 0.12164205230E+02
 0.10767326648E+02 0.93444337655E+01 0.79825435170E+01 0.67444809438E+01 0.56682601439E+01
 0.47695779850E+01 0.40468334747E+01 0.34876261609E+01 0.30751775234E+01 0.27933020640E+01
 0.26293749721E+01 0.25756122844E+01 0.26294040189E+01 0.27933463603E+01 0.30752161153E+01
 0.34876406787E+01 0.40468152018E+01 0.47695287679E+01 0.56681901038E+01 0.68870715090E+01
 0.82919445148E+01 0.98356699255E+01 0.11437770788E+02 0.12984306289E+02 0.14335496924E+02
 0.15344314780E+02 0.15885229075E+02 0.15885222212E+02 0.15344293351E+02 0.14335461290E+02
 0.12984264797E+02 0.11437742591E+02 0.98356748928E+01 0.82919851710E+01 0.68871278189E+01
 0.56682601439E+01 0.46538206649E+01 0.38404645125E+01 0.32110919143E+01 0.27426913937E+01
 0.24126650181E+01 0.22027851515E+01 0.21008449430E+01 0.21008483265E+01 0.22027845844E+01
 0.24126431840E+01 0.27426485103E+01 0.32110460725E+01 0.38404279803E+01 0.46537853107E+01
 0.56682120857E+01 0.73158010955E+01 0.89050815199E+01 0.10629754863E+02 0.12381775870E+02
 0.14014112218E+02 0.15356153818E+02 0.16243080324E+02 0.16553655039E+02 0.16243084933E+02
 0.15356149612E+02 0.14014086423E+02 0.12381729024E+02 0.10629700434E+02 0.89050362816E+01
 0.73157780047E+01 0.59278289383E+01 0.47695779850E+01 0.38404645125E+01 0.31210586716E+01
 0.25829419036E+01 0.21969010797E+01 0.19383700356E+01 0.17899110497E+01 0.17414979448E+01
 0.17899050420E+01 0.19383540287E+01 0.21968690941E+01 0.25828914935E+01 0.31209968075E+01
 0.38404071007E+01 0.47695415770E+01 0.59278224804E+01 0.80326353963E+01 0.98125294314E+01
 0.11699853077E+02 0.13553336477E+02 0.15193683384E+02 0.16429182490E+02 0.17094997298E+02
 0.17095005643E+02 0.16429202240E+02 0.15193697387E+02 0.13553318782E+02 0.11699785143E+02
 0.98124211937E+01 0.80325283009E+01 0.64533583644E+01 0.51217991078E+01 0.40468334747E+01
 0.32110919143E+01 0.25829419036E+01 0.21270735490E+01 0.18120605849E+01 0.16143054762E+01
 0.15189159553E+01 0.15189063848E+01 0.16142857481E+01 0.18120450870E+01 0.21270611598E+01
 0.25829158573E+01 0.32110443831E+01 0.40467862534E+01 0.51217929242E+01 0.64534173664E+01
 0.90392992735E+01 0.11002502135E+02 0.13019707662E+02 0.14915767687E+02 0.16484683813E+02
 0.17525895064E+02 0.17891249398E+02 0.17525913649E+02 0.16484713634E+02 0.14915790405E+02
 0.13019699135E+02 0.11002449044E+02 0.90392119133E+01 0.72555874613E+01 0.57242299224E+01
 0.44712408811E+01 0.34876261609E+01 0.27426913937E+01 0.21969010797E+01 0.18120605849E+01
 0.15575254298E+01 0.14124496642E+01 0.13652952541E+01 0.14124408816E+01 0.15575069954E+01
 0.18120353825E+01 0.21968778114E+01 0.27426812411E+01 0.34876389615E+01 0.44712838619E+01
 0.57243042619E+01 0.72556813699E+01 0.10330074053E+02 0.12454107782E+02 0.14555985757E+02
 0.16429166297E+02 0.17848099788E+02 0.18615646107E+02 0.18615659018E+02 0.17848131014E+02
 0.16429204198E+02 0.14556027516E+02 0.12454149616E+02 0.10330093595E+02 0.83427941157E+01
 0.65945047951E+01 0.51345164368E+01 0.39692441567E+01 0.30751775234E+01 0.24126650181E+01
 0.19383700356E+01 0.16143054762E+01 0.14124496642E+01 0.13154984472E+01 0.13154973133E+01
 0.14124445922E+01 0.16142920877E+01 0.19383479247E+01 0.24126498231E+01 0.30751993955E+01
 0.39693209875E+01 0.51346263541E+01 0.65945959116E+01 0.83428278576E+01 0.11875105538E+02
 0.14117701345E+02 0.16243025274E+02 0.18016890366E+02 0.19202512774E+02 0.19620205650E+02
 0.19202540098E+02 0.18016937733E+02 0.16243084933E+02 0.14117767450E+02 0.11875168548E+02
 0.97060746507E+01 0.77423163544E+01 0.60587860762E+01 0.46827716275E+01 0.36052663985E+01
 0.27933020640E+01 0.22027851515E+01 0.17899110497E+01 0.15189159553E+01 0.13652952541E+01
 0.13154973133E+01 0.13652879458E+01 0.15189104406E+01 0.17899178266E+01 0.22028094608E+01
 0.27933430085E+01 0.36053175155E+01 0.46828194687E+01 0.60588122334E+01 0.77423070698E+01
 0.97060310943E+01 0.13595166247E+02 0.15885159717E+02 0.17947560489E+02 0.19524161525E+02
 0.20380311086E+02 0.20380318832E+02 0.19524190963E+02 0.17947614212E+02 0.15885220254E+02
 0.13595216260E+02 0.11297238577E+02 0.91499423090E+01 0.72519771431E+01 0.56530563920E+01
 0.43646559131E+01 0.33690714092E+01 0.26293749721E+01 0.21008449430E+01 0.17414979448E+01
 0.15189063848E+01 0.14124408816E+01 0.14124445922E+01 0.15189104406E+01 0.17415003340E+01
 0.21008676333E+01 0.26294352603E+01 0.33691402448E+01 0.43646738986E+01 0.56529989898E+01
 0.72518825758E+01 0.91498638293E+01 0.11297186964E+02 0.15335214137E+02 0.17531732629E+02
 0.19338232360E+02 0.20528513301E+02 0.20944405051E+02 0.20528521467E+02 0.19338250039E+02
 0.17531763721E+02 0.15335263148E+02 0.13005648646E+02 0.10750244625E+02 0.86873894795E+01
 0.68860691600E+01 0.53804082181E+01 0.41757944170E+01 0.32529997609E+01 0.25756122844E+01
 0.21008483265E+01 0.17899050420E+01 0.16142857481E+01 0.15575069954E+01 0.16142920877E+01
 0.17899178266E+01 0.21008676333E+01 0.25756350451E+01 0.32530163773E+01 0.41757914973E+01
 0.53803769916E+01 0.68860110011E+01 0.86873147046E+01 0.10750167184E+02 0.13005581563E+02
 0.16675650821E+02 0.18398238429E+02 0.19633640891E+02 0.20278912411E+02 0.20278918108E+02
 0.19633646950E+02 0.18398237665E+02 0.16675666724E+02 0.14614170995E+02 0.12411704252E+02
 0.10286745139E+02 0.83511246500E+01 0.66589799779E+01 0.52433164014E+01 0.41131917727E+01
 0.32530298332E+01 0.26294040189E+01 0.22027845844E+01 0.19383540287E+01 0.18120450870E+01
 0.18120353825E+01 0.19383479247E+01 0.22028094608E+01 0.26294352603E+01 0.32530163773E+01
 0.41131321370E+01 0.52432682194E+01 0.66589817153E+01 0.83511425706E+01 0.10286723077E+02
 0.12411642052E+02 0.14614118042E+02 0.16756256435E+02 0.17596004773E+02 0.18063787350E+02
 0.18212580567E+02 0.18063782410E+02 0.17596001201E+02 0.16756257345E+02 0.15497335218E+02
 0.13837879272E+02 0.11914611237E+02 0.99716830698E+01 0.81730533677E+01 0.65818609738E+01
 0.52432851253E+01 0.41758072463E+01 0.33691519921E+01 0.27933463603E+01 0.24126431840E+01
 0.21968690941E+01 0.21270611598E+01 0.21968778114E+01 0.24126498231E+01 0.27933430085E+01
 0.33691402448E+01 0.41757914973E+01 0.52432682194E+01 0.65818488959E+01 0.81730552670E+01
 0.99717004881E+01 0.11914632760E+02 0.13837891248E+02 0.15497336256E+02 0.14815256017E+02
 0.14554589758E+02 0.14335183202E+02 0.14335181228E+02 0.14554597856E+02 0.14815284587E+02
 0.14831598562E+02 0.14337719926E+02 0.13226254304E+02 0.11626217712E+02 0.98595405871E+01
 0.81730539905E+01 0.66589480317E+01 0.53803455352E+01 0.43646932127E+01 0.36053684852E+01
 0.30752161153E+01 0.27426485103E+01 0.25828914935E+01 0.25829158573E+01 0.27426812411E+01
 0.30751993955E+01 0.36053175155E+01 0.43646738986E+01 0.53803769916E+01 0.66589817153E+01
 0.81730552670E+01 0.98595406570E+01 0.11626257961E+02 0.13226316047E+02 0.14337748573E+02
 0.14831579626E+02 0.10632335307E+02 0.94073194388E+01 0.89368238857E+01 0.94074042844E+01
 0.10632457809E+02 0.12122423765E+02 0.13274464295E+02 0.13615163822E+02 0.12992991319E+02
 0.11626180652E+02 0.99716273151E+01 0.83511078460E+01 0.68860194954E+01 0.56530259367E+01
 0.46828389335E+01 0.39693274707E+01 0.34876406787E+01 0.32110460725E+01 0.31209968075E+01
 0.32110443831E+01 0.34876389615E+01 0.39693209875E+01 0.46828194687E+01 0.56529989898E+01
 0.68860110011E+01 0.83511425706E+01 0.99717004881E+01 0.11626257961E+02 0.12993036492E+02
 0.13615158643E+02 0.13274405133E+02 0.12122318022E+02 0.48015667038E+01 0.31543992410E+01
 0.31544874057E+01 0.48017761829E+01 0.75381157530E+01 0.10462383757E+02 0.12676015280E+02
 0.13615193801E+02 0.13226261015E+02 0.11914525424E+02 0.10286650770E+02 0.86873261800E+01
 0.72519323720E+01 0.60588267548E+01 0.51346017526E+01 0.44712758477E+01 0.40468152018E+01
 0.38404279803E+01 0.38404071007E+01 0.40467862534E+01 0.44712838619E+01 0.51346263541E+01
 0.60588122334E+01 0.72518825758E+01 0.86873147046E+01 0.10286723077E+02 0.11914632760E+02
 0.13226316047E+02 0.13615158643E+02 0.12675903830E+02 0.10462209063E+02 0.75378913141E+01
 -.13064853003E+01 -.25467215835E+01 -.13063923089E+01 0.20120563534E+01 0.63619618459E+01
 0.10462414576E+02 0.13274532574E+02 0.14337794878E+02 0.13837889638E+02 0.12411621208E+02
 0.10750138727E+02 0.91498382172E+01 0.77422977032E+01 0.65946029824E+01 0.57243103543E+01
 0.51217849735E+01 0.47695287679E+01 0.46537853107E+01 0.47695415770E+01 0.51217929242E+01
 0.57243042619E+01 0.65945959116E+01 0.77423070698E+01 0.91498638293E+01 0.10750167184E+02
 0.12411642052E+02 0.13837891248E+02 0.14337748573E+02 0.13274405133E+02 0.10462209063E+02
 0.63617338439E+01 0.20118764120E+01 -.59549040449E+01 -.59549215056E+01 -.29851537337E+01
 0.20119615841E+01 0.75380585568E+01 0.12122489261E+02 0.14831703960E+02 0.15497424427E+02
 0.14614181843E+02 0.13005597500E+02 0.11297144621E+02 0.97059750474E+01 0.83428106120E+01
 0.72556951419E+01 0.64534126266E+01 0.59277871923E+01 0.56681901038E+01 0.56682120857E+01
 0.59278224804E+01 0.64534173664E+01 0.72556813699E+01 0.83428278576E+01 0.97060310943E+01
 0.11297186964E+02 0.13005581563E+02 0.14614118042E+02 0.15497336256E+02 0.14831579626E+02
 0.12122318022E+02 0.75378913141E+01 0.20118764120E+01 -.29851501630E+01 -.59549231187E+01
 -.25467583155E+01 0.31542919392E+01 0.94071770001E+01 0.14554503070E+02 0.17596024868E+02
 0.18398327532E+02 0.17531819112E+02 0.15885210923E+02 0.14117721544E+02 0.12454094562E+02
 0.11002449065E+02 0.98124637374E+01 0.89050522943E+01 0.82919605410E+01 0.79824978805E+01
 0.79824824194E+01 0.82919447989E+01 0.89050813237E+01 0.98125294790E+01 0.11002502380E+02
 0.12454107556E+02 0.14117700778E+02 0.15885159585E+02 0.17531732935E+02 0.18398238542E+02
 0.17596004821E+02 0.14554590458E+02 0.94073206795E+01 0.31544002485E+01 -.25467208269E+01
 -.59549204205E+01 -.25467583155E+01 0.21811355820E+01 0.83235126381E+01 0.14085622287E+02
 0.18110261436E+02 0.19872554867E+02 0.19665808781E+02 0.18284382653E+02 0.16553627225E+02
 0.14836645483E+02 0.13271444446E+02 0.11925550058E+02 0.10833171795E+02 0.10021588450E+02
 0.95189758908E+01 0.93484402527E+01 0.95189815805E+01 0.10021599013E+02 0.10833193375E+02
 0.11925590525E+02 0.13271491407E+02 0.14836659350E+02 0.16553575080E+02 0.18284285304E+02
 0.19665741263E+02 0.19872587364E+02 0.18110399865E+02 0.14085810415E+02 0.83236832388E+01
 0.21812518886E+01 -.25467022563E+01 -.43242907105E+01 0.31542919392E+01 0.83235126381E+01
 0.13890578210E+02 0.18334557331E+02 0.20800831061E+02 0.21258473697E+02 0.20300134668E+02
 0.18745012102E+02 0.17094966611E+02 0.15519897197E+02 0.14100001405E+02 0.12876210189E+02
 0.11887075565E+02 0.11182439867E+02 0.10813663720E+02 0.10813673754E+02 0.11182456237E+02
 0.11887081449E+02 0.12876216617E+02 0.14100028408E+02 0.15519930587E+02 0.17094962994E+02
 0.18744956417E+02 0.20300072490E+02 0.21258471810E+02 0.20800918643E+02 0.18334717918E+02
 0.13890781783E+02 0.83237267205E+01 0.31544647767E+01 0.32663355447E-01 0.32595523033E-01
 0.94071770001E+01 0.14085622287E+02 0.18334557331E+02 0.21117899481E+02 0.22111123765E+02
 0.21648360491E+02 0.20419213567E+02 0.18978308566E+02 0.17525870346E+02 0.16148634152E+02
 0.14885620178E+02 0.13776576010E+02 0.12887879785E+02 0.12304922338E+02 0.12100983034E+02
 0.12304930774E+02 0.12887885177E+02 0.13776573509E+02 0.14885617330E+02 0.16148636112E+02
 0.17525870678E+02 0.18978300818E+02 0.20419202686E+02 0.21648357235E+02 0.22111138352E+02
 0.21117950600E+02 0.18334674490E+02 0.14085816273E+02 0.94074003936E+01 0.57417900423E+01
 0.43523785605E+01 0.57416364158E+01 0.14554503070E+02 0.18110261436E+02 0.20800831061E+02
 0.22111123765E+02 0.22122947964E+02 0.21330209763E+02 0.20235749040E+02 0.19046467858E+02
 0.17848099059E+02 0.16669193938E+02 0.15537002135E+02 0.14520088872E+02 0.13732011601E+02
 0.13295740639E+02 0.13295741415E+02 0.13732009241E+02 0.14520076038E+02 0.15536978879E+02
 0.16669167881E+02 0.17848080117E+02 0.19046464016E+02 0.20235761440E+02 0.21330228947E+02
 0.22122961895E+02 0.22111134382E+02 0.20800856850E+02 0.18110316371E+02 0.14554576693E+02
 0.11159545490E+02 0.90800198750E+01 0.90799954433E+01 0.11159482654E+02 0.17596024868E+02
 0.19872554867E+02 0.21258473697E+02 0.21648360491E+02 0.21330209763E+02 0.20678420110E+02
 0.19869313808E+02 0.18978309609E+02 0.18016931237E+02 0.16987082730E+02 0.15936509383E+02
 0.14973820363E+02 0.14276729026E+02 0.14020198760E+02 0.14276729315E+02 0.14973806736E+02
 0.15936473505E+02 0.16987035573E+02 0.18016894913E+02 0.18978300554E+02 0.19869332528E+02
 0.20678450908E+02 0.21330232102E+02 0.21648364118E+02 0.21258459329E+02 0.19872519473E+02
 0.17595959435E+02 0.14993570182E+02 0.12913029314E+02 0.12117361052E+02 0.12913094589E+02
 0.14993656574E+02 0.18398327532E+02 0.19665808781E+02 0.20300134668E+02 0.20419213567E+02
 0.20235749040E+02 0.19869313808E+02 0.19375350740E+02 0.18745010603E+02 0.17947638395E+02
 0.16979939346E+02 0.15911059972E+02 0.14953190785E+02 0.14379469226E+02 0.14379476649E+02
 0.14953194459E+02 0.15911031604E+02 0.16979882030E+02 0.17947585676E+02 0.18744990719E+02
 0.19375366188E+02 0.19869349765E+02 0.20235784105E+02 0.20419223396E+02 0.20300100720E+02
 0.19665730897E+02 0.18398224733E+02 0.16693108328E+02 0.15038116362E+02 0.14014341978E+02
 0.14014368500E+02 0.15038188974E+02 0.16693208691E+02 0.17531819112E+02 0.18284382653E+02
 0.18745012102E+02 0.18978308566E+02 0.19046467858E+02 0.18978309609E+02 0.18745010603E+02
 0.18284378895E+02 0.17531817154E+02 0.16484117484E+02 0.15336360408E+02 0.14428804018E+02
 0.14082571329E+02 0.14428800401E+02 0.15336332484E+02 0.16484059475E+02 0.17531754289E+02
 0.18284342472E+02 0.18745010567E+02 0.18978336171E+02 0.19046505722E+02 0.18978337855E+02
 0.18745010196E+02 0.18284340098E+02 0.17531753765E+02 0.16484060930E+02 0.15336332298E+02
 0.14428798689E+02 0.14082571919E+02 0.14428806933E+02 0.15336361863E+02 0.16484117392E+02
 0.15885210923E+02 0.16553627225E+02 0.17094966611E+02 0.17525870346E+02 0.17848099059E+02
 0.18016931237E+02 0.17947638395E+02 0.17531817154E+02 0.16675745249E+02 0.15497425603E+02
 0.14337794180E+02 0.13615191894E+02 0.13615164473E+02 0.14337722338E+02 0.15497335451E+02
 0.16675665381E+02 0.17531764551E+02 0.17947616453E+02 0.18016937537E+02 0.17848129104E+02
 0.17525913894E+02 0.17095007375E+02 0.16553654472E+02 0.15885226985E+02 0.15106140483E+02
 0.14286801985E+02 0.13570115305E+02 0.13145148960E+02 0.13145144712E+02 0.13570103983E+02
 0.14286787826E+02 0.15106127098E+02 0.14117721544E+02 0.14836645483E+02 0.15519897197E+02
 0.16148634152E+02 0.16669193938E+02 0.16987082730E+02 0.16979939346E+02 0.16484117484E+02
 0.15497425603E+02 0.14282794887E+02 0.13277395348E+02 0.12887262250E+02 0.13277293696E+02
 0.14282647284E+02 0.15497297343E+02 0.16484038015E+02 0.16979898964E+02 0.16987064602E+02
 0.16669197225E+02 0.16148665833E+02 0.15519952814E+02 0.14836707960E+02 0.14117779693E+02
 0.13376654715E+02 0.12652676823E+02 0.12023282532E+02 0.11587982701E+02 0.11431593857E+02
 0.11587938019E+02 0.12023214821E+02 0.12652609999E+02 0.13376596209E+02 0.12454094562E+02
 0.13271444446E+02 0.14100001405E+02 0.14885620178E+02 0.15537002135E+02 0.15936509383E+02
 0.15911059972E+02 0.15336360408E+02 0.14337794180E+02 0.13277395348E+02 0.12596894361E+02
 0.12596821529E+02 0.13277223264E+02 0.14337618159E+02 0.15336243408E+02 0.15911000155E+02
 0.15936474679E+02 0.15536975718E+02 0.14885607434E+02 0.14100011173E+02 0.13271478386E+02
 0.12454151532E+02 0.11676559242E+02 0.10963831916E+02 0.10354431911E+02 0.99013122194E+01
 0.96578647212E+01 0.96578395460E+01 0.99012437362E+01 0.10354338806E+02 0.10963737231E+02
 0.11676480112E+02 0.11002449065E+02 0.11925550058E+02 0.12876210189E+02 0.13776576010E+02
 0.14520088872E+02 0.14973820363E+02 0.14953190785E+02 0.14428804018E+02 0.13615191894E+02
 0.12887262250E+02 0.12596821529E+02 0.12887117907E+02 0.13614992730E+02 0.14428645920E+02
 0.14953105633E+02 0.14973781843E+02 0.14520061047E+02 0.13776541184E+02 0.12876168409E+02
 0.11925516650E+02 0.11002450243E+02 0.10153450640E+02 0.94054716373E+01 0.87805991785E+01
 0.83042055112E+01 0.80036411076E+01 0.79006746476E+01 0.80036286125E+01 0.83041617366E+01
 0.87805193551E+01 0.94053849678E+01 0.10153398418E+02 0.98124637374E+01 0.10833171795E+02
 0.11887075565E+02 0.12887879785E+02 0.13732011601E+02 0.14276729026E+02 0.14379469226E+02
 0.14082571329E+02 0.13615164473E+02 0.13277293696E+02 0.13277223264E+02 0.13614992730E+02
 0.14082385331E+02 0.14379340685E+02 0.14276675258E+02 0.13732003623E+02 0.12887876350E+02
 0.11887051869E+02 0.10833128518E+02 0.98124162607E+01 0.88829000109E+01 0.80772261988E+01
 0.74127260429E+01 0.69008498023E+01 0.65518262060E+01 0.63746032242E+01 0.63745875307E+01
 0.65517917911E+01 0.69008217287E+01 0.74127202834E+01 0.80772443097E+01 0.88829370548E+01
 0.89050522943E+01 0.10021588450E+02 0.11182439867E+02 0.12304922338E+02 0.13295740639E+02
 0.14020198760E+02 0.14379476649E+02 0.14428800401E+02 0.14337722338E+02 0.14282647284E+02
 0.14337618159E+02 0.14428645920E+02 0.14379340685E+02 0.14020123212E+02 0.13295727215E+02
 0.12304946803E+02 0.11182471483E+02 0.10021600585E+02 0.89050247296E+01 0.78931161976E+01
 0.70212072454E+01 0.63050558419E+01 0.57490780724E+01 0.53530832480E+01 0.51159640135E+01
 0.50369799586E+01 0.51159239414E+01 0.53530566530E+01 0.57491138865E+01 0.63051504725E+01
 0.70213146953E+01 0.78931918344E+01 0.82919605410E+01 0.95189758908E+01 0.10813663720E+02
 0.12100983034E+02 0.13295741415E+02 0.14276729315E+02 0.14953194459E+02 0.15336332484E+02
 0.15497335451E+02 0.15497297343E+02 0.15336243408E+02 0.14953105633E+02 0.14276675258E+02
 0.13295727215E+02 0.12101000978E+02 0.10813703441E+02 0.95190182759E+01 0.82919780544E+01
 0.71889795630E+01 0.62434965018E+01 0.54685967535E+01 0.48635049910E+01 0.44207343080E+01
 0.41314802640E+01 0.39887405432E+01 0.39887542160E+01 0.41315187872E+01 0.44207927408E+01
 0.48635781755E+01 0.54686746610E+01 0.62435591803E+01 0.71890050313E+01 0.79824978805E+01
 0.93484402527E+01 0.10813673754E+02 0.12304930774E+02 0.13732009241E+02 0.14973806736E+02
 0.15911031604E+02 0.16484059475E+02 0.16675665381E+02 0.16484038015E+02 0.15911000155E+02
 0.14973781843E+02 0.13732003623E+02 0.12304946803E+02 0.10813703441E+02 0.93484729080E+01
 0.79825295704E+01 0.67681274902E+01 0.57346796230E+01 0.48909287284E+01 0.42306198621E+01
 0.37396233980E+01 0.34022372189E+01 0.32053894043E+01 0.31407432584E+01 0.32054536661E+01
 0.34023303283E+01 0.37396985460E+01 0.42306491369E+01 0.48909161233E+01 0.57346477952E+01
 0.67680941976E+01 0.79824824194E+01 0.95189815805E+01 0.11182456237E+02 0.12887885177E+02
 0.14520076038E+02 0.15936473505E+02 0.16979882030E+02 0.17531754289E+02 0.17531764551E+02
 0.16979898964E+02 0.15936474679E+02 0.14520061047E+02 0.12887876350E+02 0.11182471483E+02
 0.95190182759E+01 0.79825295704E+01 0.66281155376E+01 0.54835503985E+01 0.45536287338E+01
 0.38265296883E+01 0.32814234973E+01 0.28956132749E+01 0.26496694395E+01 0.25300869748E+01
 0.25300970968E+01 0.26496970437E+01 0.28956462927E+01 0.32814401183E+01 0.38265131376E+01
 0.45535827393E+01 0.54834936956E+01 0.66280621580E+01 0.82919447989E+01 0.10021599013E+02
 0.11887081449E+02 0.13776573509E+02 0.15536978879E+02 0.16987035573E+02 0.17947585676E+02
 0.18284342472E+02 0.17947616453E+02 0.16987064602E+02 0.15536975718E+02 0.13776541184E+02
 0.11887051869E+02 0.10021600585E+02 0.82919780544E+01 0.67681274902E+01 0.54835503985E+01
 0.44428391515E+01 0.36302368573E+01 0.30187231483E+01 0.25784714267E+01 0.22831971205E+01
 0.21135961427E+01 0.20582953701E+01 0.21135855000E+01 0.22831727517E+01 0.25784354625E+01
 0.30186856135E+01 0.36302058999E+01 0.44428110266E+01 0.54835146215E+01 0.67680839020E+01
 0.89050813237E+01 0.10833193375E+02 0.12876216617E+02 0.14885617330E+02 0.16669167881E+02
 0.18016894913E+02 0.18744990719E+02 0.18745010567E+02 0.18016937537E+02 0.16669197225E+02
 0.14885607434E+02 0.12876168409E+02 0.10833128518E+02 0.89050247296E+01 0.71889795630E+01
 0.57346796230E+01 0.45536287338E+01 0.36302368573E+01 0.29332393784E+01 0.24261900970E+01
 0.20755799482E+01 0.18555799265E+01 0.17495449152E+01 0.17495437810E+01 0.18555710854E+01
 0.20755534064E+01 0.24261433182E+01 0.29331822717E+01 0.36301862918E+01 0.45535996434E+01