   2   2   1   0
  0.2001288E+02  0.3839590E-09  0.3839590E-09  0.3839590E-09  0.5000000E-15
  1.000000000000000E-004
  CAR 
 fcc Si                                  
     17.10660048     -7.19993734  301      6.18664728      1.00000000
     -7.200  0.0000E+00  0.0000E+00
     -7.119  0.0000E+00  0.0000E+00
     -7.038  0.0000E+00  0.0000E+00
     -6.957  0.0000E+00  0.0000E+00
     -6.876  0.0000E+00  0.0000E+00
     -6.795  0.0000E+00  0.0000E+00
     -6.714  0.0000E+00  0.0000E+00
     -6.633  0.2665E-13  0.2159E-14
     -6.552  0.9887E-10  0.8013E-11
     -6.471  0.1018E-06  0.8258E-08
     -6.390  0.2957E-04  0.2404E-05
     -6.309  0.2483E-02  0.2036E-03
     -6.228  0.6266E-01  0.5281E-02
     -6.147  0.5025E+00  0.4599E-01
     -6.066  0.1376E+01  0.1575E+00
     -5.985  0.1475E+01  0.2770E+00
     -5.904  0.1016E+01  0.3593E+00
     -5.823  0.8086E+00  0.4249E+00
     -5.742  0.5594E+00  0.4702E+00
     -5.661  0.4621E+00  0.5076E+00
     -5.580  0.5585E+00  0.5529E+00
     -5.498  0.5894E+00  0.6006E+00
     -5.417  0.4207E+00  0.6347E+00
     -5.336  0.2139E+00  0.6520E+00
     -5.255  0.2694E+00  0.6739E+00
     -5.174  0.5371E+00  0.7174E+00
     -5.093  0.6263E+00  0.7681E+00
     -5.012  0.3285E+00  0.7947E+00
     -4.931  0.6706E-01  0.8002E+00
     -4.850  0.8147E-01  0.8068E+00
     -4.769  0.3573E+00  0.8357E+00
     -4.688  0.6293E+00  0.8867E+00
     -4.607  0.5224E+00  0.9290E+00
     -4.526  0.2192E+00  0.9468E+00
     -4.445  0.4776E-01  0.9507E+00
     -4.364  0.9604E-01  0.9584E+00
     -4.283  0.2995E+00  0.9827E+00
     -4.202  0.4240E+00  0.1017E+01
     -4.121  0.3917E+00  0.1049E+01
     -4.040  0.3714E+00  0.1079E+01
     -3.959  0.3871E+00  0.1110E+01
     -3.878  0.3531E+00  0.1139E+01
     -3.797  0.2971E+00  0.1163E+01
     -3.716  0.2911E+00  0.1187E+01
     -3.635  0.1773E+00  0.1201E+01
     -3.554  0.2101E+00  0.1218E+01
     -3.473  0.3930E+00  0.1250E+01
     -3.392  0.3937E+00  0.1282E+01
     -3.311  0.1899E+00  0.1297E+01
     -3.230  0.3455E-01  0.1300E+01
     -3.149  0.2002E-02  0.1300E+01
     -3.068  0.2304E-03  0.1300E+01
     -2.987  0.7503E-02  0.1301E+01
     -2.906  0.8943E-01  0.1308E+01
     -2.825  0.3544E+00  0.1337E+01
     -2.744  0.4932E+00  0.1377E+01
     -2.663  0.2451E+00  0.1396E+01
     -2.582  0.4303E-01  0.1400E+01
     -2.501  0.2836E-01  0.1402E+01
     -2.420  0.2137E+00  0.1419E+01
     -2.339  0.5703E+00  0.1466E+01
     -2.258  0.6441E+00  0.1518E+01
     -2.177  0.6049E+00  0.1567E+01
     -2.096  0.8229E+00  0.1634E+01
     -2.015  0.1677E+01  0.1769E+01
     -1.934  0.2919E+01  0.2006E+01
     -1.852  0.2525E+01  0.2210E+01
     -1.771  0.1234E+01  0.2311E+01
     -1.690  0.6988E+00  0.2367E+01
     -1.609  0.5557E+00  0.2412E+01
     -1.528  0.4898E+00  0.2452E+01
     -1.447  0.4915E+00  0.2492E+01
     -1.366  0.6010E+00  0.2540E+01
     -1.285  0.5344E+00  0.2584E+01
     -1.204  0.2387E+00  0.2603E+01
     -1.123  0.3038E+00  0.2628E+01
     -1.042  0.5214E+00  0.2670E+01
     -0.961  0.4649E+00  0.2708E+01
     -0.880  0.5223E+00  0.2750E+01
     -0.799  0.4568E+00  0.2787E+01
     -0.718  0.1468E+00  0.2799E+01
     -0.637  0.1521E-01  0.2800E+01
     -0.556  0.6866E-03  0.2800E+01
     -0.475  0.7678E-02  0.2801E+01
     -0.394  0.9186E-01  0.2808E+01
     -0.313  0.3639E+00  0.2838E+01
     -0.232  0.5203E+00  0.2880E+01
     -0.151  0.3855E+00  0.2911E+01
     -0.070  0.3058E+00  0.2936E+01
      0.011  0.1499E+00  0.2948E+01
      0.092  0.2498E-01  0.2950E+01
      0.173  0.1791E-02  0.2950E+01
      0.254  0.1413E-01  0.2951E+01
      0.335  0.1110E+00  0.2960E+01
      0.416  0.2853E+00  0.2983E+01
      0.497  0.3400E+00  0.3011E+01
      0.578  0.3095E+00  0.3036E+01
      0.659  0.1495E+00  0.3048E+01
      0.740  0.4618E-01  0.3052E+01
      0.821  0.1398E+00  0.3063E+01
      0.902  0.2669E+00  0.3085E+01
      0.983  0.1586E+00  0.3098E+01
      1.064  0.3672E-01  0.3101E+01
      1.145  0.8113E-01  0.3107E+01
      1.226  0.2402E+00  0.3127E+01
      1.307  0.2453E+00  0.3146E+01
      1.388  0.2703E+00  0.3168E+01
      1.469  0.6254E+00  0.3219E+01
      1.550  0.8737E+00  0.3290E+01
      1.631  0.8960E+00  0.3362E+01
      1.712  0.7542E+00  0.3424E+01
      1.793  0.5536E+00  0.3468E+01
      1.875  0.5786E+00  0.3515E+01
      1.956  0.4685E+00  0.3553E+01
      2.037  0.4380E+00  0.3589E+01
      2.118  0.6214E+00  0.3639E+01
      2.199  0.7115E+00  0.3697E+01
      2.280  0.4929E+00  0.3737E+01
      2.361  0.2749E+00  0.3759E+01
      2.442  0.4538E+00  0.3796E+01
      2.523  0.5032E+00  0.3836E+01
      2.604  0.3080E+00  0.3861E+01
      2.685  0.4320E+00  0.3896E+01
      2.766  0.5770E+00  0.3943E+01
      2.847  0.6858E+00  0.3999E+01
      2.928  0.1027E+01  0.4082E+01
      3.009  0.2096E+01  0.4252E+01
      3.090  0.2870E+01  0.4484E+01
      3.171  0.2308E+01  0.4671E+01
      3.252  0.1758E+01  0.4814E+01
      3.333  0.1214E+01  0.4912E+01
      3.414  0.1326E+01  0.5020E+01
      3.495  0.1696E+01  0.5157E+01
      3.576  0.9536E+00  0.5234E+01
      3.657  0.2731E+00  0.5256E+01
      3.738  0.5118E+00  0.5298E+01
      3.819  0.9726E+00  0.5377E+01
      3.900  0.6935E+00  0.5433E+01
      3.981  0.2007E+00  0.5449E+01
      4.062  0.1375E+00  0.5460E+01
      4.143  0.5284E+00  0.5503E+01
      4.224  0.1025E+01  0.5586E+01
      4.305  0.9339E+00  0.5662E+01
      4.386  0.4135E+00  0.5695E+01
      4.467  0.2380E+00  0.5715E+01
      4.548  0.5804E+00  0.5762E+01
      4.629  0.1165E+01  0.5856E+01
      4.710  0.2020E+01  0.6020E+01
      4.791  0.2031E+01  0.6184E+01
      4.872  0.1354E+01  0.6294E+01
      4.953  0.1114E+01  0.6384E+01
      5.034  0.1154E+01  0.6478E+01
      5.115  0.9366E+00  0.6554E+01
      5.196  0.1042E+01  0.6638E+01
      5.277  0.1289E+01  0.6742E+01
      5.358  0.1125E+01  0.6834E+01
      5.439  0.1129E+01  0.6925E+01
      5.520  0.1114E+01  0.7015E+01
      5.602  0.1359E+01  0.7125E+01
      5.683  0.1760E+01  0.7268E+01
      5.764  0.1675E+01  0.7404E+01
      5.845  0.2489E+01  0.7605E+01
      5.926  0.3101E+01  0.7857E+01
      6.007  0.1514E+01  0.7979E+01
      6.088  0.2426E+00  0.7999E+01
      6.169  0.1196E-01  0.8000E+01
      6.250  0.1721E-02  0.8000E+01
      6.331  0.3643E-01  0.8003E+01
      6.412  0.2732E+00  0.8025E+01
      6.493  0.8711E+00  0.8096E+01
      6.574  0.1910E+01  0.8251E+01
      6.655  0.2580E+01  0.8460E+01
      6.736  0.1850E+01  0.8609E+01
      6.817  0.1411E+01  0.8724E+01
      6.898  0.1448E+01  0.8841E+01
      6.979  0.1009E+01  0.8923E+01
      7.060  0.8273E+00  0.8990E+01
      7.141  0.9772E+00  0.9069E+01
      7.222  0.8291E+00  0.9136E+01
      7.303  0.5615E+00  0.9182E+01
      7.384  0.6296E+00  0.9233E+01
      7.465  0.1097E+01  0.9322E+01
      7.546  0.1268E+01  0.9424E+01
      7.627  0.9372E+00  0.9500E+01
      7.708  0.5205E+00  0.9542E+01
      7.789  0.4533E+00  0.9579E+01
      7.870  0.8477E+00  0.9648E+01
      7.951  0.1093E+01  0.9736E+01
      8.032  0.9168E+00  0.9811E+01
      8.113  0.4406E+00  0.9846E+01
      8.194  0.2815E+00  0.9869E+01
      8.275  0.6478E+00  0.9922E+01
      8.356  0.1565E+01  0.1005E+02
      8.437  0.3282E+01  0.1031E+02
      8.518  0.3677E+01  0.1061E+02
      8.599  0.2415E+01  0.1081E+02
      8.680  0.1795E+01  0.1095E+02
      8.761  0.1877E+01  0.1111E+02
      8.842  0.1756E+01  0.1125E+02
      8.923  0.1505E+01  0.1137E+02
      9.004  0.1225E+01  0.1147E+02
      9.085  0.9780E+00  0.1155E+02
      9.166  0.1254E+01  0.1165E+02
      9.247  0.2507E+01  0.1185E+02
      9.329  0.3460E+01  0.1213E+02
      9.410  0.3328E+01  0.1240E+02
      9.491  0.2395E+01  0.1260E+02
      9.572  0.1231E+01  0.1270E+02
      9.653  0.7505E+00  0.1276E+02
      9.734  0.6239E+00  0.1281E+02
      9.815  0.4066E+00  0.1284E+02
      9.896  0.2143E+00  0.1286E+02
      9.977  0.5231E+00  0.1290E+02
     10.058  0.8306E+00  0.1297E+02
     10.139  0.7572E+00  0.1303E+02
     10.220  0.1055E+01  0.1311E+02
     10.301  0.1092E+01  0.1320E+02
     10.382  0.7640E+00  0.1327E+02
     10.463  0.3572E+00  0.1329E+02
     10.544  0.9699E-01  0.1330E+02
     10.625  0.2080E+00  0.1332E+02
     10.706  0.4816E+00  0.1336E+02
     10.787  0.3957E+00  0.1339E+02
     10.868  0.1168E+00  0.1340E+02
     10.949  0.6907E-01  0.1341E+02
     11.030  0.2519E+00  0.1343E+02
     11.111  0.5042E+00  0.1347E+02
     11.192  0.6276E+00  0.1352E+02
     11.273  0.4421E+00  0.1355E+02
     11.354  0.4209E+00  0.1359E+02
     11.435  0.6595E+00  0.1364E+02
     11.516  0.7246E+00  0.1370E+02
     11.597  0.5876E+00  0.1375E+02
     11.678  0.6084E+00  0.1380E+02
     11.759  0.6106E+00  0.1385E+02
     11.840  0.4319E+00  0.1388E+02
     11.921  0.2355E+00  0.1390E+02
     12.002  0.2380E+00  0.1392E+02
     12.083  0.4739E+00  0.1396E+02
     12.164  0.6426E+00  0.1401E+02
     12.245  0.4958E+00  0.1405E+02
     12.326  0.4697E+00  0.1409E+02
     12.407  0.5203E+00  0.1413E+02
     12.488  0.2512E+00  0.1415E+02
     12.569  0.1949E+00  0.1417E+02
     12.650  0.2671E+00  0.1419E+02
     12.731  0.1318E+00  0.1420E+02
     12.812  0.2587E-01  0.1420E+02
     12.893  0.6815E-01  0.1421E+02
     12.974  0.2315E+00  0.1422E+02
     13.056  0.3142E+00  0.1425E+02
     13.137  0.4777E+00  0.1429E+02
     13.218  0.7447E+00  0.1435E+02
     13.299  0.7270E+00  0.1441E+02
     13.380  0.6713E+00  0.1446E+02
     13.461  0.3993E+00  0.1449E+02
     13.542  0.2514E+00  0.1452E+02
     13.623  0.6014E+00  0.1456E+02
     13.704  0.9890E+00  0.1464E+02
     13.785  0.9191E+00  0.1472E+02
     13.866  0.5640E+00  0.1476E+02
     13.947  0.5980E+00  0.1481E+02
     14.028  0.5816E+00  0.1486E+02
     14.109  0.4480E+00  0.1490E+02
     14.190  0.5582E+00  0.1494E+02
     14.271  0.7455E+00  0.1500E+02
     14.352  0.5779E+00  0.1505E+02
     14.433  0.3864E+00  0.1508E+02
     14.514  0.2132E+00  0.1510E+02
     14.595  0.1395E+00  0.1511E+02
     14.676  0.3070E+00  0.1513E+02
     14.757  0.4202E+00  0.1517E+02
     14.838  0.3389E+00  0.1519E+02
     14.919  0.2759E+00  0.1522E+02
     15.000  0.3001E+00  0.1524E+02
     15.081  0.2995E+00  0.1527E+02
     15.162  0.5174E+00  0.1531E+02
     15.243  0.8116E+00  0.1537E+02
     15.324  0.7375E+00  0.1543E+02
     15.405  0.5158E+00  0.1547E+02
     15.486  0.5619E+00  0.1552E+02
     15.567  0.3590E+00  0.1555E+02
     15.648  0.3209E+00  0.1558E+02
     15.729  0.5280E+00  0.1562E+02
     15.810  0.5405E+00  0.1566E+02
     15.891  0.7334E+00  0.1572E+02
     15.972  0.1349E+01  0.1583E+02
     16.053  0.1429E+01  0.1595E+02
     16.134  0.5778E+00  0.1599E+02
     16.215  0.7728E-01  0.1600E+02
     16.296  0.3186E-02  0.1600E+02
     16.377  0.3872E-04  0.1600E+02
     16.458  0.1346E-06  0.1600E+02
     16.539  0.1312E-09  0.1600E+02
     16.620  0.3549E-13  0.1600E+02
     16.701  0.0000E+00  0.1600E+02
     16.783  0.0000E+00  0.1600E+02
     16.864  0.0000E+00  0.1600E+02
     16.945  0.0000E+00  0.1600E+02
     17.026  0.0000E+00  0.1600E+02
     17.107  0.0000E+00  0.1600E+02
     17.10660048     -7.19993734  301      6.18664728      1.00000000
     -7.200  0.0000E+00  0.0000E+00  0.0000E+00  0.0000E+00  0.0000E+00  0.0000E+00  0.0000E+00  0.0000E+00  0.0000E+00
     -7.119  0.0000E+00  0.0000E+00  0.0000E+00  0.0000E+00  0.0000E+00  0.0000E+00  0.0000E+00  0.0000E+00  0.0000E+00
     -7.038  0.0000E+00  0.0000E+00  0.0000E+00  0.0000E+00  0.0000E+00  0.0000E+00  0.0000E+00  0.0000E+00  0.0000E+00
     -6.957  0.0000E+00  0.0000E+00  0.0000E+00  0.0000E+00  0.0000E+00  0.0000E+00  0.0000E+00  0.0000E+00  0.0000E+00
     -6.876  0.0000E+00  0.0000E+00  0.0000E+00  0.0000E+00  0.0000E+00  0.0000E+00  0.0000E+00  0.0000E+00  0.0000E+00
     -6.795  0.0000E+00  0.0000E+00  0.0000E+00  0.0000E+00  0.0000E+00  0.0000E+00  0.0000E+00  0.0000E+00  0.0000E+00
     -6.714  0.0000E+00  0.0000E+00  0.0000E+00  0.0000E+00  0.0000E+00  0.0000E+00  0.0000E+00  0.0000E+00  0.0000E+00
     -6.633  0.5713E-14  0.1548E-19  0.3620E-19  0.1548E-19  0.0000E+00  0.0000E+00  0.0000E+00  0.0000E+00  0.0000E+00
     -6.552  0.2119E-10  0.1202E-15  0.2141E-15  0.9419E-16  0.0000E+00  0.0000E+00  0.0000E+00  0.0000E+00  0.0000E+00
     -6.471  0.2183E-07  0.2525E-12  0.4788E-12  0.1830E-12  0.0000E+00  0.0000E+00  0.0000E+00  0.0000E+00  0.0000E+00
     -6.390  0.6340E-05  0.1504E-09  0.3015E-09  0.9879E-10  0.0000E+00  0.0000E+00  0.0000E+00  0.0000E+00  0.0000E+00
     -6.309  0.5323E-03  0.2574E-07  0.5405E-07  0.1501E-07  0.0000E+00  0.0000E+00  0.0000E+00  0.0000E+00  0.0000E+00
     -6.228  0.1343E-01  0.1293E-05  0.2807E-05  0.6575E-06  0.0000E+00  0.0000E+00  0.0000E+00  0.0000E+00  0.0000E+00
     -6.147  0.1077E+00  0.1974E-04  0.4347E-04  0.8768E-05  0.0000E+00  0.0000E+00  0.0000E+00  0.0000E+00  0.0000E+00
     -6.066  0.2949E+00  0.1002E-03  0.2167E-03  0.4261E-04  0.0000E+00  0.0000E+00  0.0000E+00  0.0000E+00  0.0000E+00
     -5.985  0.3159E+00  0.2254E-03  0.4777E-03  0.1122E-03  0.0000E+00  0.0000E+00  0.0000E+00  0.0000E+00  0.0000E+00
     -5.904  0.2172E+00  0.3866E-03  0.8962E-03  0.1783E-03  0.0000E+00  0.0000E+00  0.0000E+00  0.0000E+00  0.0000E+00
     -5.823  0.1725E+00  0.5355E-03  0.1178E-02  0.1841E-03  0.0000E+00  0.0000E+00  0.0000E+00  0.0000E+00  0.0000E+00
     -5.742  0.1191E+00  0.5339E-03  0.9123E-03  0.3048E-03  0.0000E+00  0.0000E+00  0.0000E+00  0.0000E+00  0.0000E+00
     -5.661  0.9814E-01  0.4743E-03  0.1202E-02  0.3245E-03  0.0000E+00  0.0000E+00  0.0000E+00  0.0000E+00  0.0000E+00
     -5.580  0.1184E+00  0.6856E-03  0.2117E-02  0.1818E-03  0.0000E+00  0.0000E+00  0.0000E+00  0.0000E+00  0.0000E+00
     -5.498  0.1248E+00  0.1091E-02  0.2003E-02  0.3657E-03  0.0000E+00  0.0000E+00  0.0000E+00  0.0000E+00  0.0000E+00
     -5.417  0.8907E-01  0.9273E-03  0.1136E-02  0.6040E-03  0.0000E+00  0.0000E+00  0.0000E+00  0.0000E+00  0.0000E+00
     -5.336  0.4519E-01  0.3841E-03  0.8319E-03  0.3313E-03  0.0000E+00  0.0000E+00  0.0000E+00  0.0000E+00  0.0000E+00
     -5.255  0.5661E-01  0.2654E-03  0.2128E-02  0.1110E-03  0.0000E+00  0.0000E+00  0.0000E+00  0.0000E+00  0.0000E+00
     -5.174  0.1130E+00  0.1182E-02  0.3612E-02  0.4109E-03  0.0000E+00  0.0000E+00  0.0000E+00  0.0000E+00  0.0000E+00
     -5.093  0.1319E+00  0.2119E-02  0.3095E-02  0.9276E-03  0.0000E+00  0.0000E+00  0.0000E+00  0.0000E+00  0.0000E+00
     -5.012  0.6926E-01  0.1226E-02  0.1347E-02  0.6593E-03  0.0000E+00  0.0000E+00  0.0000E+00  0.0000E+00  0.0000E+00
     -4.931  0.1413E-01  0.2303E-03  0.3076E-03  0.1482E-03  0.0000E+00  0.0000E+00  0.0000E+00  0.0000E+00  0.0000E+00
     -4.850  0.1699E-01  0.9186E-04  0.9732E-03  0.8394E-04  0.0000E+00  0.0000E+00  0.0000E+00  0.0000E+00  0.0000E+00
     -4.769  0.7468E-01  0.6416E-03  0.3846E-02  0.5373E-03  0.0000E+00  0.0000E+00  0.0000E+00  0.0000E+00  0.0000E+00
     -4.688  0.1320E+00  0.1970E-02  0.5548E-02  0.1234E-02  0.0000E+00  0.0000E+00  0.0000E+00  0.0000E+00  0.0000E+00
     -4.607  0.1097E+00  0.2564E-02  0.3793E-02  0.9833E-03  0.0000E+00  0.0000E+00  0.0000E+00  0.0000E+00  0.0000E+00
     -4.526  0.4599E-01  0.1356E-02  0.1484E-02  0.3103E-03  0.0000E+00  0.0000E+00  0.0000E+00  0.0000E+00  0.0000E+00
     -4.445  0.1006E-01  0.3017E-03  0.3074E-03  0.9002E-04  0.0000E+00  0.0000E+00  0.0000E+00  0.0000E+00  0.0000E+00
     -4.364  0.2055E-01  0.4602E-03  0.5422E-03  0.4474E-03  0.0000E+00  0.0000E+00  0.0000E+00  0.0000E+00  0.0000E+00
     -4.283  0.6376E-01  0.1229E-02  0.2316E-02  0.1227E-02  0.0000E+00  0.0000E+00  0.0000E+00  0.0000E+00  0.0000E+00
     -4.202  0.8894E-01  0.1116E-02  0.5455E-02  0.1060E-02  0.0000E+00  0.0000E+00  0.0000E+00  0.0000E+00  0.0000E+00
     -4.121  0.8125E-01  0.1008E-02  0.6320E-02  0.4731E-03  0.0000E+00  0.0000E+00  0.0000E+00  0.0000E+00  0.0000E+00
     -4.040  0.7786E-01  0.2268E-02  0.4269E-02  0.7255E-03  0.0000E+00  0.0000E+00  0.0000E+00  0.0000E+00  0.0000E+00
     -3.959  0.8301E-01  0.2656E-02  0.2885E-02  0.1288E-02  0.0000E+00  0.0000E+00  0.0000E+00  0.0000E+00  0.0000E+00
     -3.878  0.7751E-01  0.1950E-02  0.1957E-02  0.1577E-02  0.0000E+00  0.0000E+00  0.0000E+00  0.0000E+00  0.0000E+00
     -3.797  0.6639E-01  0.1437E-02  0.1438E-02  0.1407E-02  0.0000E+00  0.0000E+00  0.0000E+00  0.0000E+00  0.0000E+00
     -3.716  0.6568E-01  0.1347E-02  0.1402E-02  0.1347E-02  0.0000E+00  0.0000E+00  0.0000E+00  0.0000E+00  0.0000E+00
     -3.635  0.3930E-01  0.6747E-03  0.1608E-02  0.6717E-03  0.0000E+00  0.0000E+00  0.0000E+00  0.0000E+00  0.0000E+00
     -3.554  0.4312E-01  0.2796E-03  0.5090E-02  0.2091E-03  0.0000E+00  0.0000E+00  0.0000E+00  0.0000E+00  0.0000E+00
     -3.473  0.8059E-01  0.1185E-02  0.8767E-02  0.7007E-03  0.0000E+00  0.0000E+00  0.0000E+00  0.0000E+00  0.0000E+00
     -3.392  0.8215E-01  0.2470E-02  0.6152E-02  0.1456E-02  0.0000E+00  0.0000E+00  0.0000E+00  0.0000E+00  0.0000E+00
     -3.311  0.4007E-01  0.1594E-02  0.2138E-02  0.9393E-03  0.0000E+00  0.0000E+00  0.0000E+00  0.0000E+00  0.0000E+00
     -3.230  0.7316E-02  0.3144E-03  0.3383E-03  0.1853E-03  0.0000E+00  0.0000E+00  0.0000E+00  0.0000E+00  0.0000E+00
     -3.149  0.4243E-03  0.1857E-04  0.1887E-04  0.1096E-04  0.0000E+00  0.0000E+00  0.0000E+00  0.0000E+00  0.0000E+00
     -3.068  0.4930E-04  0.1834E-05  0.2158E-05  0.2481E-05  0.0000E+00  0.0000E+00  0.0000E+00  0.0000E+00  0.0000E+00
     -2.987  0.1601E-02  0.5482E-04  0.8142E-04  0.8296E-04  0.0000E+00  0.0000E+00  0.0000E+00  0.0000E+00  0.0000E+00
     -2.906  0.1894E-01  0.5836E-03  0.1219E-02  0.8832E-03  0.0000E+00  0.0000E+00  0.0000E+00  0.0000E+00  0.0000E+00
     -2.825  0.7411E-01  0.1877E-02  0.6385E-02  0.2840E-02  0.0000E+00  0.0000E+00  0.0000E+00  0.0000E+00  0.0000E+00
     -2.744  0.1016E+00  0.1855E-02  0.1159E-01  0.2807E-02  0.0000E+00  0.0000E+00  0.0000E+00  0.0000E+00  0.0000E+00
     -2.663  0.4971E-01  0.5635E-03  0.7036E-02  0.8527E-03  0.0000E+00  0.0000E+00  0.0000E+00  0.0000E+00  0.0000E+00
     -2.582  0.8642E-02  0.5637E-04  0.1382E-02  0.9166E-04  0.0000E+00  0.0000E+00  0.0000E+00  0.0000E+00  0.0000E+00
     -2.501  0.6040E-02  0.1302E-03  0.4522E-03  0.3704E-03  0.0000E+00  0.0000E+00  0.0000E+00  0.0000E+00  0.0000E+00
     -2.420  0.4577E-01  0.1054E-02  0.3091E-02  0.2989E-02  0.0000E+00  0.0000E+00  0.0000E+00  0.0000E+00  0.0000E+00
     -2.339  0.1220E+00  0.2759E-02  0.8870E-02  0.7506E-02  0.0000E+00  0.0000E+00  0.0000E+00  0.0000E+00  0.0000E+00
     -2.258  0.1373E+00  0.2848E-02  0.1281E-01  0.6434E-02  0.0000E+00  0.0000E+00  0.0000E+00  0.0000E+00  0.0000E+00
     -2.177  0.1274E+00  0.2053E-02  0.1701E-01  0.2883E-02  0.0000E+00  0.0000E+00  0.0000E+00  0.0000E+00  0.0000E+00
     -2.096  0.1692E+00  0.1690E-02  0.2905E-01  0.1747E-02  0.0000E+00  0.0000E+00  0.0000E+00  0.0000E+00  0.0000E+00
     -2.015  0.3340E+00  0.1391E-02  0.6968E-01  0.1392E-02  0.0000E+00  0.0000E+00  0.0000E+00  0.0000E+00  0.0000E+00
     -1.934  0.5713E+00  0.9979E-03  0.1298E+00  0.9979E-03  0.0000E+00  0.0000E+00  0.0000E+00  0.0000E+00  0.0000E+00
     -1.852  0.4904E+00  0.8342E-03  0.1148E+00  0.8342E-03  0.0000E+00  0.0000E+00  0.0000E+00  0.0000E+00  0.0000E+00
     -1.771  0.2377E+00  0.1029E-02  0.5647E-01  0.1029E-02  0.0000E+00  0.0000E+00  0.0000E+00  0.0000E+00  0.0000E+00
     -1.690  0.1332E+00  0.1308E-02  0.3189E-01  0.1308E-02  0.0000E+00  0.0000E+00  0.0000E+00  0.0000E+00  0.0000E+00
     -1.609  0.1050E+00  0.1548E-02  0.2523E-01  0.1552E-02  0.0000E+00  0.0000E+00  0.0000E+00  0.0000E+00  0.0000E+00
     -1.528  0.9185E-01  0.1775E-02  0.2197E-01  0.1938E-02  0.0000E+00  0.0000E+00  0.0000E+00  0.0000E+00  0.0000E+00
     -1.447  0.9138E-01  0.2239E-02  0.2002E-01  0.4339E-02  0.0000E+00  0.0000E+00  0.0000E+00  0.0000E+00  0.0000E+00
     -1.366  0.1109E+00  0.3236E-02  0.1882E-01  0.1139E-01  0.0000E+00  0.0000E+00  0.0000E+00  0.0000E+00  0.0000E+00
     -1.285  0.9806E-01  0.3124E-02  0.1422E-01  0.1285E-01  0.0000E+00  0.0000E+00  0.0000E+00  0.0000E+00  0.0000E+00
     -1.204  0.4013E-01  0.2479E-02  0.6679E-02  0.6045E-02  0.0000E+00  0.0000E+00  0.0000E+00  0.0000E+00  0.0000E+00
     -1.123  0.3974E-01  0.6283E-02  0.1174E-01  0.6694E-02  0.0000E+00  0.0000E+00  0.0000E+00  0.0000E+00  0.0000E+00
     -1.042  0.7466E-01  0.8448E-02  0.2241E-01  0.8868E-02  0.0000E+00  0.0000E+00  0.0000E+00  0.0000E+00  0.0000E+00
     -0.961  0.7276E-01  0.5925E-02  0.1776E-01  0.9313E-02  0.0000E+00  0.0000E+00  0.0000E+00  0.0000E+00  0.0000E+00
     -0.880  0.7693E-01  0.9359E-02  0.1244E-01  0.1790E-01  0.0000E+00  0.0000E+00  0.0000E+00  0.0000E+00  0.0000E+00
     -0.799  0.6170E-01  0.1011E-01  0.1035E-01  0.1675E-01  0.0000E+00  0.0000E+00  0.0000E+00  0.0000E+00  0.0000E+00
     -0.718  0.1850E-01  0.3648E-02  0.3654E-02  0.5227E-02  0.0000E+00  0.0000E+00  0.0000E+00  0.0000E+00  0.0000E+00
     -0.637  0.1804E-02  0.4111E-03  0.4111E-03  0.5241E-03  0.0000E+00  0.0000E+00  0.0000E+00  0.0000E+00  0.0000E+00
     -0.556  0.8751E-04  0.1730E-04  0.1730E-04  0.2464E-04  0.0000E+00  0.0000E+00  0.0000E+00  0.0000E+00  0.0000E+00
     -0.475  0.1225E-02  0.1356E-03  0.1356E-03  0.3153E-03  0.0000E+00  0.0000E+00  0.0000E+00  0.0000E+00  0.0000E+00
     -0.394  0.1411E-01  0.1776E-02  0.1777E-02  0.3686E-02  0.0000E+00  0.0000E+00  0.0000E+00  0.0000E+00  0.0000E+00
     -0.313  0.5271E-01  0.7922E-02  0.8009E-02  0.1406E-01  0.0000E+00  0.0000E+00  0.0000E+00  0.0000E+00  0.0000E+00
     -0.232  0.7097E-01  0.1231E-01  0.1403E-01  0.1836E-01  0.0000E+00  0.0000E+00  0.0000E+00  0.0000E+00  0.0000E+00
     -0.151  0.5653E-01  0.6560E-02  0.1667E-01  0.8395E-02  0.0000E+00  0.0000E+00  0.0000E+00  0.0000E+00  0.0000E+00
     -0.070  0.5336E-01  0.1150E-02  0.1929E-01  0.1318E-02  0.0000E+00  0.0000E+00  0.0000E+00  0.0000E+00  0.0000E+00
      0.011  0.2726E-01  0.6298E-04  0.1009E-01  0.6750E-04  0.0000E+00  0.0000E+00  0.0000E+00  0.0000E+00  0.0000E+00
      0.092  0.4566E-02  0.1162E-05  0.1693E-02  0.1302E-05  0.0000E+00  0.0000E+00  0.0000E+00  0.0000E+00  0.0000E+00
      0.173  0.3123E-03  0.1209E-04  0.9718E-04  0.2164E-04  0.0000E+00  0.0000E+00  0.0000E+00  0.0000E+00  0.0000E+00
      0.254  0.2180E-02  0.3181E-03  0.3193E-03  0.5687E-03  0.0000E+00  0.0000E+00  0.0000E+00  0.0000E+00  0.0000E+00
      0.335  0.1707E-01  0.2517E-02  0.2517E-02  0.4468E-02  0.0000E+00  0.0000E+00  0.0000E+00  0.0000E+00  0.0000E+00
      0.416  0.4275E-01  0.6758E-02  0.6758E-02  0.1137E-01  0.0000E+00  0.0000E+00  0.0000E+00  0.0000E+00  0.0000E+00
      0.497  0.4501E-01  0.9570E-02  0.9570E-02  0.1293E-01  0.0000E+00  0.0000E+00  0.0000E+00  0.0000E+00  0.0000E+00
      0.578  0.3456E-01  0.1035E-01  0.1035E-01  0.1110E-01  0.0000E+00  0.0000E+00  0.0000E+00  0.0000E+00  0.0000E+00
      0.659  0.1590E-01  0.5183E-02  0.5266E-02  0.5234E-02  0.0000E+00  0.0000E+00  0.0000E+00  0.0000E+00  0.0000E+00
      0.740  0.6378E-02  0.8520E-03  0.2606E-02  0.8529E-03  0.0000E+00  0.0000E+00  0.0000E+00  0.0000E+00  0.0000E+00
      0.821  0.2433E-01  0.4213E-04  0.1113E-01  0.4214E-04  0.0000E+00  0.0000E+00  0.0000E+00  0.0000E+00  0.0000E+00
      0.902  0.4662E-01  0.6672E-06  0.2135E-01  0.6821E-06  0.0000E+00  0.0000E+00  0.0000E+00  0.0000E+00  0.0000E+00
      0.983  0.2770E-01  0.7232E-05  0.1268E-01  0.8977E-05  0.0000E+00  0.0000E+00  0.0000E+00  0.0000E+00  0.0000E+00
      1.064  0.6134E-02  0.2440E-03  0.2541E-02  0.3029E-03  0.0000E+00  0.0000E+00  0.0000E+00  0.0000E+00  0.0000E+00
      1.145  0.1139E-01  0.2428E-02  0.2552E-02  0.3014E-02  0.0000E+00  0.0000E+00  0.0000E+00  0.0000E+00  0.0000E+00
      1.226  0.3350E-01  0.7339E-02  0.7341E-02  0.9108E-02  0.0000E+00  0.0000E+00  0.0000E+00  0.0000E+00  0.0000E+00
      1.307  0.3208E-01  0.7782E-02  0.7781E-02  0.9582E-02  0.0000E+00  0.0000E+00  0.0000E+00  0.0000E+00  0.0000E+00
      1.388  0.1861E-01  0.1092E-01  0.1086E-01  0.1270E-01  0.0000E+00  0.0000E+00  0.0000E+00  0.0000E+00  0.0000E+00
      1.469  0.2668E-01  0.2821E-01  0.2744E-01  0.3098E-01  0.0000E+00  0.0000E+00  0.0000E+00  0.0000E+00  0.0000E+00
      1.550  0.2140E-01  0.4356E-01  0.4022E-01  0.4436E-01  0.0000E+00  0.0000E+00  0.0000E+00  0.0000E+00  0.0000E+00
      1.631  0.6985E-02  0.4738E-01  0.4083E-01  0.5004E-01  0.0000E+00  0.0000E+00  0.0000E+00  0.0000E+00  0.0000E+00
      1.712  0.4695E-02  0.3914E-01  0.3167E-01  0.4650E-01  0.0000E+00  0.0000E+00  0.0000E+00  0.0000E+00  0.0000E+00
      1.793  0.1623E-01  0.2613E-01  0.2547E-01  0.3015E-01  0.0000E+00  0.0000E+00  0.0000E+00  0.0000E+00  0.0000E+00
      1.875  0.4093E-01  0.2103E-01  0.3387E-01  0.2165E-01  0.0000E+00  0.0000E+00  0.0000E+00  0.0000E+00  0.0000E+00
      1.956  0.3462E-01  0.1719E-01  0.2713E-01  0.1756E-01  0.0000E+00  0.0000E+00  0.0000E+00  0.0000E+00  0.0000E+00
      2.037  0.1327E-01  0.2352E-01  0.1609E-01  0.2696E-01  0.0000E+00  0.0000E+00  0.0000E+00  0.0000E+00  0.0000E+00
      2.118  0.2216E-01  0.3115E-01  0.2062E-01  0.4127E-01  0.0000E+00  0.0000E+00  0.0000E+00  0.0000E+00  0.0000E+00
      2.199  0.3630E-01  0.3530E-01  0.2342E-01  0.4413E-01  0.0000E+00  0.0000E+00  0.0000E+00  0.0000E+00  0.0000E+00
      2.280  0.2045E-01  0.2920E-01  0.1384E-01  0.3138E-01  0.0000E+00  0.0000E+00  0.0000E+00  0.0000E+00  0.0000E+00
      2.361  0.8726E-02  0.1815E-01  0.6895E-02  0.1827E-01  0.0000E+00  0.0000E+00  0.0000E+00  0.0000E+00  0.0000E+00
      2.442  0.1978E-01  0.2856E-01  0.1254E-01  0.2857E-01  0.0000E+00  0.0000E+00  0.0000E+00  0.0000E+00  0.0000E+00
      2.523  0.2288E-01  0.3141E-01  0.1407E-01  0.3147E-01  0.0000E+00  0.0000E+00  0.0000E+00  0.0000E+00  0.0000E+00
      2.604  0.8803E-02  0.2126E-01  0.6726E-02  0.2257E-01  0.0000E+00  0.0000E+00  0.0000E+00  0.0000E+00  0.0000E+00
      2.685  0.4046E-02  0.2958E-01  0.8176E-02  0.3772E-01  0.0000E+00  0.0000E+00  0.0000E+00  0.0000E+00  0.0000E+00
      2.766  0.1165E-01  0.3246E-01  0.1674E-01  0.4791E-01  0.0000E+00  0.0000E+00  0.0000E+00  0.0000E+00  0.0000E+00
      2.847  0.3238E-01  0.3604E-01  0.2913E-01  0.4507E-01  0.0000E+00  0.0000E+00  0.0000E+00  0.0000E+00  0.0000E+00
      2.928  0.3774E-01  0.7402E-01  0.2984E-01  0.7563E-01  0.0000E+00  0.0000E+00  0.0000E+00  0.0000E+00  0.0000E+00
      3.009  0.1463E-01  0.1992E+00  0.1138E-01  0.1992E+00  0.0000E+00  0.0000E+00  0.0000E+00  0.0000E+00  0.0000E+00
      3.090  0.5736E-02  0.2842E+00  0.3473E-02  0.2834E+00  0.0000E+00  0.0000E+00  0.0000E+00  0.0000E+00  0.0000E+00
      3.171  0.1871E-01  0.2223E+00  0.9524E-02  0.2186E+00  0.0000E+00  0.0000E+00  0.0000E+00  0.0000E+00  0.0000E+00
      3.252  0.2650E-01  0.1635E+00  0.1366E-01  0.1581E+00  0.0000E+00  0.0000E+00  0.0000E+00  0.0000E+00  0.0000E+00
      3.333  0.1233E-01  0.1147E+00  0.1029E-01  0.1107E+00  0.0000E+00  0.0000E+00  0.0000E+00  0.0000E+00  0.0000E+00
      3.414  0.8482E-02  0.1198E+00  0.2602E-01  0.1126E+00  0.0000E+00  0.0000E+00  0.0000E+00  0.0000E+00  0.0000E+00
      3.495  0.2061E-01  0.1409E+00  0.4688E-01  0.1335E+00  0.0000E+00  0.0000E+00  0.0000E+00  0.0000E+00  0.0000E+00
      3.576  0.1946E-01  0.7343E-01  0.2965E-01  0.7154E-01  0.0000E+00  0.0000E+00  0.0000E+00  0.0000E+00  0.0000E+00
      3.657  0.6103E-02  0.2170E-01  0.1102E-01  0.1742E-01  0.0000E+00  0.0000E+00  0.0000E+00  0.0000E+00  0.0000E+00
      3.738  0.5194E-02  0.4758E-01  0.2495E-01  0.2807E-01  0.0000E+00  0.0000E+00  0.0000E+00  0.0000E+00  0.0000E+00
      3.819  0.2213E-01  0.8015E-01  0.5011E-01  0.5355E-01  0.0000E+00  0.0000E+00  0.0000E+00  0.0000E+00  0.0000E+00
      3.900  0.3212E-01  0.4357E-01  0.4531E-01  0.3239E-01  0.0000E+00  0.0000E+00  0.0000E+00  0.0000E+00  0.0000E+00
      3.981  0.1437E-01  0.8441E-02  0.1760E-01  0.6120E-02  0.0000E+00  0.0000E+00  0.0000E+00  0.0000E+00  0.0000E+00
      4.062  0.2002E-02  0.1236E-01  0.1096E-01  0.3846E-02  0.0000E+00  0.0000E+00  0.0000E+00  0.0000E+00  0.0000E+00
      4.143  0.1183E-02  0.5074E-01  0.2746E-01  0.2902E-01  0.0000E+00  0.0000E+00  0.0000E+00  0.0000E+00  0.0000E+00
      4.224  0.8326E-02  0.8740E-01  0.3460E-01  0.7906E-01  0.0000E+00  0.0000E+00  0.0000E+00  0.0000E+00  0.0000E+00
      4.305  0.2037E-01  0.6733E-01  0.3056E-01  0.7550E-01  0.0000E+00  0.0000E+00  0.0000E+00  0.0000E+00  0.0000E+00
      4.386  0.1648E-01  0.2651E-01  0.1867E-01  0.2709E-01  0.0000E+00  0.0000E+00  0.0000E+00  0.0000E+00  0.0000E+00
      4.467  0.8961E-02  0.1754E-01  0.1689E-01  0.8899E-02  0.0000E+00  0.0000E+00  0.0000E+00  0.0000E+00  0.0000E+00
      4.548  0.1414E-01  0.4698E-01  0.4352E-01  0.2195E-01  0.0000E+00  0.0000E+00  0.0000E+00  0.0000E+00  0.0000E+00
      4.629  0.1268E-01  0.9575E-01  0.7271E-01  0.7123E-01  0.0000E+00  0.0000E+00  0.0000E+00  0.0000E+00  0.0000E+00
      4.710  0.1174E-01  0.1575E+00  0.1196E+00  0.1501E+00  0.0000E+00  0.0000E+00  0.0000E+00  0.0000E+00  0.0000E+00
      4.791  0.2234E-01  0.1407E+00  0.1452E+00  0.1394E+00  0.0000E+00  0.0000E+00  0.0000E+00  0.0000E+00  0.0000E+00
      4.872  0.1726E-01  0.8831E-01  0.1123E+00  0.8263E-01  0.0000E+00  0.0000E+00  0.0000E+00  0.0000E+00  0.0000E+00
      4.953  0.4431E-02  0.8064E-01  0.8763E-01  0.7007E-01  0.0000E+00  0.0000E+00  0.0000E+00  0.0000E+00  0.0000E+00
      5.034  0.1068E-02  0.7923E-01  0.7863E-01  0.8819E-01  0.0000E+00  0.0000E+00  0.0000E+00  0.0000E+00  0.0000E+00
      5.115  0.5949E-03  0.6484E-01  0.5175E-01  0.8214E-01  0.0000E+00  0.0000E+00  0.0000E+00  0.0000E+00  0.0000E+00
      5.196  0.5912E-03  0.8860E-01  0.4252E-01  0.8968E-01  0.0000E+00  0.0000E+00  0.0000E+00  0.0000E+00  0.0000E+00
      5.277  0.3759E-02  0.1157E+00  0.6592E-01  0.9105E-01  0.0000E+00  0.0000E+00  0.0000E+00  0.0000E+00  0.0000E+00
      5.358  0.1019E-01  0.1005E+00  0.8439E-01  0.5106E-01  0.0000E+00  0.0000E+00  0.0000E+00  0.0000E+00  0.0000E+00
      5.439  0.1302E-01  0.8689E-01  0.9255E-01  0.5545E-01  0.0000E+00  0.0000E+00  0.0000E+00  0.0000E+00  0.0000E+00