    2    2    1    1
  0.2001288E+02  0.3839590E-09  0.3839590E-09  0.3839590E-09  0.5000000E-15
  1.000000000000000E-004
  CAR 
 fcc Si                                  
      8     40      8
 
  0.5000000E+00  0.5000000E+00  0.5000000E+00  0.2500000E-01
    1       -3.759095   1.000000
    2       -1.103510   1.000000
    3        4.678055   1.000000
    4        4.678055   1.000000
    5        7.421673   0.000000
    6        9.218048   0.000000
    7        9.218048   0.000000
    8       13.599191   0.000000
 
  0.4444444E+00  0.4444444E+00  0.4444444E+00  0.2500000E-01
    1       -3.923325   1.000000
    2       -0.863604   1.000000
    3        4.699645   1.000000
    4        4.699645   1.000000
    5        7.446766   0.000000
    6        9.242438   0.000000
    7        9.242438   0.000000
    8       13.637574   0.000000
 
  0.3888889E+00  0.3888889E+00  0.3888889E+00  0.2500000E-01
    1       -4.294544   1.000000
    2       -0.264062   1.000000
    3        4.766260   1.000000
    4        4.766260   1.000000
    5        7.523733   0.000000
    6        9.308693   0.000000
    7        9.308693   0.000000
    8       13.732846   0.000000
 
  0.3333333E+00  0.3333333E+00  0.3333333E+00  0.2500000E-01
    1       -4.716484   1.000000
    2        0.536336   1.000000
    3        4.876643   1.000000
    4        4.876643   1.000000
    5        7.647525   0.000000
    6        9.384678   0.000000
    7        9.384678   0.000000
    8       13.746964   0.000000
 
  0.2777778E+00  0.2777778E+00  0.2777778E+00  0.2500000E-01
    1       -5.114691   1.000000
    2        1.455272   1.000000
    3        5.028457   1.000000
    4        5.028457   1.000000
    5        7.815355   0.000000
    6        9.411321   0.000000
    7        9.411321   0.000000
    8       13.242412   0.000000
 
  0.2222222E+00  0.2222222E+00  0.2222222E+00  0.2500000E-01
    1       -5.458356   1.000000
    2        2.452427   1.000000
    3        5.216692   1.000000
    4        5.216692   1.000000
    5        8.014954   0.000000
    6        9.318178   0.000000
    7        9.318178   0.000000
    8       12.336424   0.000000
 
  0.1666667E+00  0.1666667E+00  0.1666667E+00  0.2500000E-01
    1       -5.733497   1.000000
    2        3.495713   1.000000
    3        5.430445   1.000000
    4        5.430445   1.000000
    5        8.230920   0.000000
    6        9.087013   0.000000
    7        9.087013   0.000000
    8       11.343799   0.000000
 
  0.1111111E+00  0.1111111E+00  0.1111111E+00  0.2500000E-01
    1       -5.933345   1.000000
    2        4.536305   1.000000
    3        5.645924   1.000000
    4        5.645924   1.000000
    5        8.422875   0.000000
    6        8.787957   0.000000
    7        8.787957   0.000000
    8       10.362973   0.000000
 
  0.5555556E-01  0.5555556E-01  0.5555556E-01  0.2500000E-01
    1       -6.054473   1.000000
    2        5.452147   1.000000
    3        5.817803   1.000000
    4        5.817803   1.000000
    5        8.500885   0.000000
    6        8.535286   0.000000
    7        8.535286   0.000000
    8        9.554434   0.000000
 
  0.0000000E+00  0.0000000E+00  0.0000000E+00  0.2500000E-01
    1       -6.095095   1.000000
    2        5.885217   0.999990
    3        5.885233   0.999990
    4        5.885233   0.999990
    5        8.434882   0.000000
    6        8.434900   0.000000
    7        8.434900   0.000000
    8        9.255576   0.000000
 
  0.0000000E+00  0.0000000E+00  0.0000000E+00  0.2500000E-01
    1       -6.095095   1.000000
    2        5.885217   0.999990
    3        5.885233   0.999990
    4        5.885233   0.999990
    5        8.434882   0.000000
    6        8.434900   0.000000
    7        8.434900   0.000000
    8        9.255576   0.000000
 
  0.0000000E+00  0.5555556E-01  0.5555556E-01  0.2500000E-01
    1       -6.040928   1.000000
    2        5.546203   1.000000
    3        5.670719   1.000000
    4        5.670730   1.000000
    5        8.306154   0.000000
    6        8.717556   0.000000
    7        8.717568   0.000000
    8        9.581999   0.000000
 
  0.0000000E+00  0.1111111E+00  0.1111111E+00  0.2500000E-01
    1       -5.879022   1.000000
    2        4.774067   1.000000
    3        5.201697   1.000000
    4        5.201707   1.000000
    5        7.981616   0.000000
    6        9.385277   0.000000
    7        9.385288   0.000000
    8       10.188525   0.000000
 
  0.0000000E+00  0.1666667E+00  0.1666667E+00  0.2500000E-01
    1       -5.610456   1.000000
    2        3.844718   1.000000
    3        4.682060   1.000000
    4        4.682070   1.000000
    5        7.576413   0.000000
    6       10.186803   0.000000
    7       10.230223   0.000000
    8       10.230236   0.000000
 
  0.0000000E+00  0.2222222E+00  0.2222222E+00  0.2500000E-01
    1       -5.237084   1.000000
    2        2.861698   1.000000
    3        4.199202   1.000000
    4        4.199211   1.000000
    5        7.179894   0.000000
    6        9.438511   0.000000
    7       11.160559   0.000000
    8       11.160572   0.000000
 
  0.0000000E+00  0.2777778E+00  0.2777778E+00  0.2500000E-01
    1       -4.761699   1.000000
    2        1.862590   1.000000
    3        3.784428   1.000000
    4        3.784438   1.000000
    5        6.844610   0.000000
    6        8.602377   0.000000
    7       12.145526   0.000000
    8       12.145540   0.000000
 
  0.0000000E+00  0.3333333E+00  0.3333333E+00  0.2500000E-01
    1       -4.188209   1.000000
    2        0.866330   1.000000
    3        3.452713   1.000000
    4        3.452722   1.000000
    5        6.600954   0.000000
    6        7.869857   0.000000
    7       13.161852   0.000000
    8       13.161867   0.000000
 
  0.0000000E+00  0.3888889E+00  0.3888889E+00  0.2500000E-01
    1       -3.522628   1.000000
    2       -0.110804   1.000000
    3        3.211096   1.000000
    4        3.211105   1.000000
    5        6.467816   0.000035
    6        7.285385   0.000000
    7       14.210338   0.000000
    8       14.210350   0.000000
 
  0.0000000E+00  0.4444444E+00  0.4444444E+00  0.2500000E-01
    1       -2.771826   1.000000
    2       -1.053650   1.000000
    3        3.065260   1.000000
    4        3.065269   1.000000
    5        6.459290   0.000058
    6        6.858280   0.000000
    7       15.260054   0.000000
    8       15.260066   0.000000
 
  0.0000000E+00  0.5000000E+00  0.5000000E+00  0.2500000E-01
    1       -1.944990   1.000000
    2       -1.944989   1.000000
    3        3.016404   1.000000
    4        3.016413   1.000000
    5        6.585985   0.000000
    6        6.586003   0.000000
    7       16.001744   0.000000
    8       16.001758   0.000000
 
  0.0000000E+00  0.5000000E+00  0.5000000E+00  0.2500000E-01
    1       -1.944990   1.000000
    2       -1.944989   1.000000
    3        3.016404   1.000000
    4        3.016413   1.000000
    5        6.585985   0.000000
    6        6.586003   0.000000
    7       16.001744   0.000000
    8       16.001758   0.000000
 
  0.2777778E-01  0.5138889E+00  0.5138889E+00  0.2500000E-01
    1       -1.947754   1.000000
    2       -1.937681   1.000000
    3        2.970251   1.000000
    4        3.021851   1.000000
    5        6.592256   0.000000
    6        6.654550   0.000000
    7       15.926933   0.000000
    8       15.961263   0.000000
 
  0.5555556E-01  0.5277778E+00  0.5277778E+00  0.2500000E-01
    1       -1.956454   1.000000
    2       -1.915756   1.000000
    3        2.842745   1.000000
    4        3.038147   1.000000
    5        6.611048   0.000000
    6        6.849592   0.000000
    7       15.726460   0.000000
    8       15.846212   0.000000
 
  0.8333333E-01  0.5416667E+00  0.5416667E+00  0.2500000E-01
    1       -1.972365   1.000000
    2       -1.879227   1.000000
    3        2.658820   1.000000
    4        3.065160   1.000000
    5        6.642289   0.000000
    6        7.146351   0.000000
    7       15.443571   0.000000
    8       15.669832   0.000000
 
  0.1111111E+00  0.5555556E+00  0.5555556E+00  0.2500000E-01
    1       -1.997437   1.000000
    2       -1.828107   1.000000
    3        2.446302   1.000000
    4        3.102942   1.000000
    5        6.685883   0.000000
    6        7.519350   0.000000
    7       15.119474   0.000000
    8       15.453080   0.000000
 
  0.1388889E+00  0.5694444E+00  0.5694444E+00  0.2500000E-01
    1       -2.034108   1.000000
    2       -1.762477   1.000000
    3        2.227401   1.000000
    4        3.150959   1.000000
    5        6.740090   0.000000
    6        7.950018   0.000000
    7       14.768338   0.000000
    8       15.207090   0.000000
 
  0.1666667E+00  0.5833333E+00  0.5833333E+00  0.2500000E-01
    1       -2.085597   1.000000
    2       -1.682254   1.000000
    3        2.018884   1.000000
    4        3.209608   1.000000
    5        6.807792   0.000000
    6        8.423492   0.000000
    7       14.411531   0.000000
    8       14.944717   0.000000
 
  0.1944444E+00  0.5972222E+00  0.5972222E+00  0.2500000E-01
    1       -2.155113   1.000000
    2       -1.587536   1.000000
    3        1.833075   1.000000
    4        3.278318   1.000000
    5        6.887183   0.000000
    6        8.929980   0.000000
    7       14.054962   0.000000
    8       14.663347   0.000000
 
  0.2222222E+00  0.6111111E+00  0.6111111E+00  0.2500000E-01
    1       -2.245405   1.000000
    2       -1.478361   1.000000
    3        1.678629   1.000000
    4        3.356766   1.000000
    5        6.977909   0.000000
    6        9.462415   0.000000
    7       13.701113   0.000000
    8       14.287858   0.000000
 
  0.2500000E+00  0.6250000E+00  0.6250000E+00  0.2500000E-01
    1       -2.357956   1.000000
    2       -1.354282   1.000000
    3        1.561671   1.000000
    4        3.444746   1.000000
    5        7.079885   0.000000
    6       10.016268   0.000000
    7       13.354517   0.000000
    8       13.929329   0.000000
 
  0.3750000E+00  0.7500000E+00  0.3750000E+00  0.2500000E-01
    1       -2.357956   1.000000
    2       -1.354282   1.000000
    3        1.561671   1.000000
    4        3.444746   1.000000
    5        7.079885   0.000000
    6       10.016268   0.000000
    7       13.354517   0.000000
    8       13.929329   0.000000
 
  0.3333333E+00  0.6666667E+00  0.3333333E+00  0.2500000E-01
    1       -2.825566   1.000000
    2       -0.897659   1.000000
    3        1.450571   1.000000
    4        3.759253   1.000000
    5        7.443509   0.000000
    6       11.700737   0.000000
    7       12.359072   0.000000
    8       12.976963   0.000000
 
  0.2916667E+00  0.5833333E+00  0.2916667E+00  0.2500000E-01
    1       -3.422093   1.000000
    2       -0.313999   1.000000
    3        1.662835   1.000000
    4        4.135530   1.000000
    5        7.875589   0.000000
    6       11.456342   0.000000
    7       11.814615   0.000000
    8       12.602039   0.000000
 
  0.2500000E+00  0.5000000E+00  0.2500000E+00  0.2500000E-01
    1       -4.048380   1.000000
    2        0.394255   1.000000
    3        2.113142   1.000000
    4        4.547099   1.000000
    5        8.329402   0.000000
    6       10.666346   0.000000
    7       11.039682   0.000000
    8       12.031086   0.000000
 
  0.2083333E+00  0.4166667E+00  0.2083333E+00  0.2500000E-01
    1       -4.635679   1.000000
    2        1.220975   1.000000
    3        2.728749   1.000000
    4        4.955037   1.000000
    5        8.713660   0.000000
    6        9.987932   0.000000
    7       10.336420   0.000000
    8       11.667498   0.000000
 
  0.1666667E+00  0.3333333E+00  0.1666667E+00  0.2500000E-01
    1       -5.144453   1.000000
    2        2.159392   1.000000
    3        3.457782   1.000000
    4        5.316530   1.000000
    5        8.920035   0.000000
    6        9.432882   0.000000
    7        9.741565   0.000000
    8       11.551273   0.000000
 
  0.1250000E+00  0.2500000E+00  0.1250000E+00  0.2500000E-01
    1       -5.554069   1.000000
    2        3.195016   1.000000
    3        4.245287   1.000000
    4        5.591377   1.000000
    5        8.921736   0.000000
    6        8.997987   0.000000
    7        9.246963   0.000000
    8       11.439109   0.000000
 
  0.8333333E-01  0.1666667E+00  0.8333333E-01  0.2500000E-01
    1       -5.852864   1.000000
    2        4.291510   1.000000
    3        5.013577   1.000000
    4        5.766433   1.000000
    5        8.685188   0.000000
    6        8.810596   0.000000
    7        8.849013   0.000000
    8       10.715177   0.000000
 
  0.4166667E-01  0.8333333E-01  0.4166667E-01  0.2500000E-01
    1       -6.034256   1.000000
    2        5.337940   1.000000
    3        5.632258   1.000000
    4        5.857812   0.999998
    5        8.497512   0.000000
    6        8.556193   0.000000
    7        8.635492   0.000000
    8        9.690780   0.000000
 
  0.0000000E+00  0.0000000E+00  0.0000000E+00  0.2500000E-01
    1       -6.095095   1.000000
    2        5.885217   0.999990
    3        5.885233   0.999990
    4        5.885233   0.999990
    5        8.434882   0.000000
    6        8.434900   0.000000
    7        8.434900   0.000000
    8        9.255576   0.000000
