       N       E                     dE             d eps       ncg     rms          rms(c)
DAV:   1    -0.681571992371E+01   -0.68157E+01   -0.34434E-13   320   0.290E-06
DAV:   2    -0.681571992371E+01    0.00000E+00    0.26421E-13   320   0.692E-07
   1 F= -.68157199E+01 E0= -.68157185E+01  d E =-.282499E-05
