 vasp.5.4.4.18Apr17-6-g9f103f2a35 (build Apr 19 2022 13:31:49) complex          
  
 executed on             LinuxIFC date 2023.12.25  02:58:13
 running on    4 total cores
 distrk:  each k-point on    4 cores,    1 groups
 distr:  one band on NCORES_PER_BAND=   1 cores,    4 groups


--------------------------------------------------------------------------------------------------------


 INCAR:
 POTCAR:   PAW_PBE Si 05Jan2001                   
 POTCAR:   PAW_PBE Si 05Jan2001                   
   VRHFIN =Si: s2p2                                                             
   LEXCH  = PE                                                                  
   EATOM  =   103.0669 eV,    7.5752 Ry                                         
                                                                                
   TITEL  = PAW_PBE Si 05Jan2001                                                
   LULTRA =        F    use ultrasoft PP ?                                      
   IUNSCR =        1    unscreen: 0-lin 1-nonlin 2-no                           
   RPACOR =    1.500    partial core radius                                     
   POMASS =   28.085; ZVAL   =    4.000    mass and valenz                      
   RCORE  =    1.900    outmost cutoff radius                                   
   RWIGS  =    2.480; RWIGS  =    1.312    wigner-seitz radius (au A)           
   ENMAX  =  245.345; ENMIN  =  184.009 eV                                      
   ICORE  =        2    local potential                                         
   LCOR   =        T    correct aug charges                                     
   LPAW   =        T    paw PP                                                  
   EAUG   =  322.069                                                            
   DEXC   =    -.007                                                            
   RMAX   =    2.944    core radius for proj-oper                               
   RAUG   =    1.300    factor for augmentation sphere                          
   RDEP   =    1.993    radius for radial grids                                 
   QCUT   =   -4.246; QGAM   =    8.493    optimization parameters              
                                                                                
   Description                                                                  
     l     E      TYP  RCUT    TYP  RCUT                                        
     0   .000     23  1.900                                                     
     0   .000     23  1.900                                                     
     1   .000     23  1.900                                                     
     1   .000     23  1.900                                                     
     2   .000      7  1.900                                                     
  local pseudopotential read in
  partial core-charges read in
  atomic valenz-charges read in
  non local Contribution for L=           0  read in
    real space projection operators read in
  non local Contribution for L=           0  read in
    real space projection operators read in
  non local Contribution for L=           1  read in
    real space projection operators read in
  non local Contribution for L=           1  read in
    real space projection operators read in
    PAW grid and wavefunctions read in
 
   number of l-projection  operators is LMAX  =           4
   number of lm-projection operators is LMMAX =           8
 
 PAW_PBE Si 05Jan2001                   :
 energy of atom  1       EATOM= -103.0669
 kinetic energy error for atom=    0.0056 (will be added to EATOM!!)
 
 
 POSCAR: system Si                               
  positions in direct lattice
  velocities in cartesian coordinates
 exchange correlation table for  LEXCH =        8
   RHO(1)=    0.500       N(1)  =     2000
   RHO(2)=  100.500       N(2)  =     4000
 


--------------------------------------------------------------------------------------------------------


 ion  position               nearest neighbor table
   1  0.000  0.000  0.000-   2 2.35   2 2.35   2 2.35   2 2.35
   2  0.250  0.250  0.250-   1 2.35   1 2.35   1 2.35   1 2.35
 
  LATTYP: Found a face centered cubic cell.
 ALAT       =     5.4300000000
  
  Lattice vectors:
  
 A1 = (   2.7150000000,   2.7150000000,   0.0000000000)
 A2 = (   0.0000000000,   2.7150000000,   2.7150000000)
 A3 = (   2.7150000000,   0.0000000000,   2.7150000000)


Analysis of symmetry for initial positions (statically):
=====================================================================
 Subroutine PRICEL returns:
 Original cell was already a primitive cell.
 

 Routine SETGRP: Setting up the symmetry group for a 
 face centered cubic supercell.


 Subroutine GETGRP returns: Found 48 space group operations
 (whereof 24 operations were pure point group operations)
 out of a pool of 48 trial point group operations.


The static configuration has the point symmetry T_d .
 The point group associated with its full space group is O_h .


Analysis of symmetry for dynamics (positions and initial velocities):
=====================================================================
 Subroutine PRICEL returns:
 Original cell was already a primitive cell.
 

 Routine SETGRP: Setting up the symmetry group for a 
 face centered cubic supercell.


 Subroutine GETGRP returns: Found 48 space group operations
 (whereof 24 operations were pure point group operations)
 out of a pool of 48 trial point group operations.


The dynamic configuration has the point symmetry T_d .
 The point group associated with its full space group is O_h .


 Subroutine INISYM returns: Found 48 space group operations
 (whereof 24 operations are pure point group operations),
 and found     1 'primitive' translations

 
 
 KPOINTS: k-points for bandstructure L-G-X-U K-G  
  interpolating k-points between supplied coordinates
  k-points in reciprocal lattice
Space group operators:
 irot       det(A)        alpha          n_x          n_y          n_z        tau_x        tau_y        tau_z
    1     1.000000     0.000001     1.000000     0.000000     0.000000     0.000000     0.000000     0.000000
    2     1.000000   120.000000    -0.577350    -0.577350    -0.577350     0.000000     0.000000     0.000000
    3     1.000000   120.000000     0.577350     0.577350     0.577350     0.000000     0.000000     0.000000
    4    -1.000000    90.000000     0.000000    -1.000000     0.000000     0.000000     0.000000     0.000000
    5    -1.000000   180.000000     0.707107     0.707107     0.000000     0.000000     0.000000     0.000000
    6    -1.000000    90.000000     1.000000     0.000000     0.000000     0.000000     0.000000     0.000000
    7     1.000000   180.000000     0.000000     1.000000     0.000000     0.000000     0.000000     0.000000
    8     1.000000   120.000000     0.577350     0.577350    -0.577350     0.000000     0.000000     0.000000
    9     1.000000   120.000000     0.577350    -0.577350    -0.577350     0.000000     0.000000     0.000000
   10    -1.000000    90.000000     0.000000     1.000000     0.000000     0.000000     0.000000     0.000000
   11    -1.000000    90.000000     0.000000     0.000000    -1.000000     0.000000     0.000000     0.000000
   12    -1.000000   180.000000     0.000000     0.707107     0.707107     0.000000     0.000000     0.000000
   13     1.000000   120.000000    -0.577350     0.577350     0.577350     0.000000     0.000000     0.000000
   14     1.000000   120.000000    -0.577350     0.577350    -0.577350     0.000000     0.000000     0.000000
   15     1.000000   180.000000     0.000000     0.000000     1.000000     0.000000     0.000000     0.000000
   16    -1.000000    90.000000    -1.000000     0.000000     0.000000     0.000000     0.000000     0.000000
   17    -1.000000   180.000000     0.707107     0.000000     0.707107     0.000000     0.000000     0.000000
   18    -1.000000    90.000000     0.000000     0.000000     1.000000     0.000000     0.000000     0.000000
   19     1.000000   120.000000    -0.577350    -0.577350     0.577350     0.000000     0.000000     0.000000
   20     1.000000   180.000000     1.000000     0.000000     0.000000     0.000000     0.000000     0.000000
   21     1.000000   120.000000     0.577350    -0.577350     0.577350     0.000000     0.000000     0.000000
   22    -1.000000   180.000000     0.707107    -0.707107     0.000000     0.000000     0.000000     0.000000
   23    -1.000000   180.000000     0.707107     0.000000    -0.707107     0.000000     0.000000     0.000000
   24    -1.000000   180.000000     0.000000    -0.707107     0.707107     0.000000     0.000000     0.000000
   25    -1.000000     0.000001     1.000000     0.000000     0.000000     0.250000     0.250000     0.250000
   26    -1.000000   120.000000    -0.577350    -0.577350    -0.577350     0.250000     0.250000     0.250000
   27    -1.000000   120.000000     0.577350     0.577350     0.577350     0.250000     0.250000     0.250000
   28     1.000000    90.000000     0.000000    -1.000000     0.000000     0.250000     0.250000     0.250000
   29     1.000000   180.000000     0.707107     0.707107     0.000000     0.250000     0.250000     0.250000
   30     1.000000    90.000000     1.000000     0.000000     0.000000     0.250000     0.250000     0.250000
   31    -1.000000   180.000000     0.000000     1.000000     0.000000     0.250000     0.250000     0.250000
   32    -1.000000   120.000000     0.577350     0.577350    -0.577350     0.250000     0.250000     0.250000
   33    -1.000000   120.000000     0.577350    -0.577350    -0.577350     0.250000     0.250000     0.250000
   34     1.000000    90.000000     0.000000     1.000000     0.000000     0.250000     0.250000     0.250000
   35     1.000000    90.000000     0.000000     0.000000    -1.000000     0.250000     0.250000     0.250000
   36     1.000000   180.000000     0.000000     0.707107     0.707107     0.250000     0.250000     0.250000
   37    -1.000000   120.000000    -0.577350     0.577350     0.577350     0.250000     0.250000     0.250000
   38    -1.000000   120.000000    -0.577350     0.577350    -0.577350     0.250000     0.250000     0.250000
   39    -1.000000   180.000000     0.000000     0.000000     1.000000     0.250000     0.250000     0.250000
   40     1.000000    90.000000    -1.000000     0.000000     0.000000     0.250000     0.250000     0.250000
   41     1.000000   180.000000     0.707107     0.000000     0.707107     0.250000     0.250000     0.250000
   42     1.000000    90.000000     0.000000     0.000000     1.000000     0.250000     0.250000     0.250000
   43    -1.000000   120.000000    -0.577350    -0.577350     0.577350     0.250000     0.250000     0.250000
   44    -1.000000   180.000000     1.000000     0.000000     0.000000     0.250000     0.250000     0.250000
   45    -1.000000   120.000000     0.577350    -0.577350     0.577350     0.250000     0.250000     0.250000
   46     1.000000   180.000000     0.707107    -0.707107     0.000000     0.250000     0.250000     0.250000
   47     1.000000   180.000000     0.707107     0.000000    -0.707107     0.250000     0.250000     0.250000
   48     1.000000   180.000000     0.000000    -0.707107     0.707107     0.250000     0.250000     0.250000


--------------------------------------------------------------------------------------------------------




 Dimension of arrays:
   k-points           NKPTS =     40   k-points in BZ     NKDIM =     40   number of bands    NBANDS=      8
   number of dos      NEDOS =    301   number of ions     NIONS =      2
   non local maximal  LDIM  =      4   non local SUM 2l+1 LMDIM =      8
   total plane-waves  NPLWV =   4096
   max r-space proj   IRMAX =      1   max aug-charges    IRDMAX=   3621
   dimension x,y,z NGX =    16 NGY =   16 NGZ =   16
   dimension x,y,z NGXF=    32 NGYF=   32 NGZF=   32
   support grid    NGXF=    32 NGYF=   32 NGZF=   32
   ions per type =               2
   NGX,Y,Z   is equivalent  to a cutoff of   6.93,  6.93,  6.93 a.u.
   NGXF,Y,Z  is equivalent  to a cutoff of  13.86, 13.86, 13.86 a.u.

 SYSTEM =  fcc Si                                  
 POSCAR =  system Si                               

 Startparameter for this run:
   NWRITE =      2    write-flag & timer
   PREC   = normal    normal or accurate (medium, high low for compatibility)
   ISTART =      1    job   : 0-new  1-cont  2-samecut
   ICHARG =     11    charge: 1-file 2-atom 10-const
   ISPIN  =      1    spin polarized calculation?
   LNONCOLLINEAR =      F non collinear calculations
   LSORBIT =      F    spin-orbit coupling
   INIWAV =      1    electr: 0-lowe 1-rand  2-diag
   LASPH  =      F    aspherical Exc in radial PAW
   METAGGA=      F    non-selfconsistent MetaGGA calc.

 Electronic Relaxation 1
   ENCUT  =  245.3 eV  18.03 Ry    4.25 a.u.   4.90  4.90  4.90*2*pi/ulx,y,z
   ENINI  =  245.3     initial cutoff
   ENAUG  =  322.1 eV  augmentation charge cutoff
   NELM   =     60;   NELMIN=  2; NELMDL=  0     # of ELM steps 
   EDIFF  = 0.1E-03   stopping-criterion for ELM
   LREAL  =      F    real-space projection
   NLSPLINE    = F    spline interpolate recip. space projectors
   LCOMPAT=      F    compatible to vasp.4.4
   GGA_COMPAT  = T    GGA compatible to vasp.4.4-vasp.4.6
   LMAXPAW     = -100 max onsite density
   LMAXMIX     =    2 max onsite mixed and CHGCAR
   VOSKOWN=      0    Vosko Wilk Nusair interpolation
   ROPT   =    0.00000
 Ionic relaxation
   EDIFFG = 0.1E-02   stopping-criterion for IOM
   NSW    =      0    number of steps for IOM
   NBLOCK =      1;   KBLOCK =      1    inner block; outer block 
   IBRION =     -1    ionic relax: 0-MD 1-quasi-New 2-CG
   NFREE  =      0    steps in history (QN), initial steepest desc. (CG)
   ISIF   =      2    stress and relaxation
   IWAVPR =     10    prediction:  0-non 1-charg 2-wave 3-comb
   ISYM   =      2    0-nonsym 1-usesym 2-fastsym
   LCORR  =      T    Harris-Foulkes like correction to forces

   POTIM  = 0.5000    time-step for ionic-motion
   TEIN   =    0.0    initial temperature
   TEBEG  =    0.0;   TEEND  =   0.0 temperature during run
   SMASS  =  -3.00    Nose mass-parameter (am)
   estimated Nose-frequenzy (Omega)   =  0.10E-29 period in steps =****** mass=  -0.337E-27a.u.
   SCALEE = 1.0000    scale energy and forces
   NPACO  =    256;   APACO  = 16.0  distance and # of slots for P.C.
   PSTRESS=    0.0 pullay stress

  Mass of Ions in am
   POMASS =  28.09
  Ionic Valenz
   ZVAL   =   4.00
  Atomic Wigner-Seitz radii
   RWIGS  =  -1.00
  virtual crystal weights 
   VCA    =   1.00
   NELECT =       8.0000    total number of electrons
   NUPDOWN=      -1.0000    fix difference up-down

 DOS related values:
   EMIN   =  10.00;   EMAX   =-10.00  energy-range for DOS
   EFERMI =   0.00
   ISMEAR =     0;   SIGMA  =   0.10  broadening in eV -4-tet -1-fermi 0-gaus

 Electronic relaxation 2 (details)
   IALGO  =     38    algorithm
   LDIAG  =      T    sub-space diagonalisation (order eigenvalues)
   LSUBROT=      F    optimize rotation matrix (better conditioning)
   TURBO    =      0    0=normal 1=particle mesh
   IRESTART =      0    0=no restart 2=restart with 2 vectors
   NREBOOT  =      0    no. of reboots
   NMIN     =      0    reboot dimension
   EREF     =   0.00    reference energy to select bands
   IMIX   =      4    mixing-type and parameters
     AMIX     =   0.40;   BMIX     =  1.00
     AMIX_MAG =   1.60;   BMIX_MAG =  1.00
     AMIN     =   0.10
     WC   =   100.;   INIMIX=   1;  MIXPRE=   1;  MAXMIX= -45

 Intra band minimization:
   WEIMIN = 0.0000     energy-eigenvalue tresh-hold
   EBREAK =  0.31E-05  absolut break condition
   DEPER  =   0.30     relativ break condition  

   TIME   =   0.40     timestep for ELM

  volume/ion in A,a.u.               =      20.01       135.05
  Fermi-wavevector in a.u.,A,eV,Ry     =   0.957176  1.808800 12.465458  0.916185
  Thomas-Fermi vector in A             =   2.086170
 
 Write flags
   LWAVE        =      T    write WAVECAR
   LDOWNSAMPLE  =      F    k-point downsampling of WAVECAR
   LCHARG       =      T    write CHGCAR
   LVTOT        =      F    write LOCPOT, total local potential
   LVHAR        =      F    write LOCPOT, Hartree potential only
   LELF         =      F    write electronic localiz. function (ELF)
   LORBIT       =     11    0 simple, 1 ext, 2 COOP (PROOUT), +10 PAW based schemes


 Dipole corrections
   LMONO  =      F    monopole corrections only (constant potential shift)
   LDIPOL =      F    correct potential (dipole corrections)
   IDIPOL =      0    1-x, 2-y, 3-z, 4-all directions 
   EPSILON=  1.0000000 bulk dielectric constant

 Exchange correlation treatment:
   GGA     =    --    GGA type
   LEXCH   =     8    internal setting for exchange type
   VOSKOWN=      0    Vosko Wilk Nusair interpolation
   LHFCALC =     F    Hartree Fock is set to
   LHFONE  =     F    Hartree Fock one center treatment
   AEXX    =    0.0000 exact exchange contribution

 Linear response parameters
   LEPSILON=     F    determine dielectric tensor
   LRPA    =     F    only Hartree local field effects (RPA)
   LNABLA  =     F    use nabla operator in PAW spheres
   LVEL    =     F    velocity operator in full k-point grid
   LINTERFAST=   F  fast interpolation
   KINTER  =     0    interpolate to denser k-point grid
   CSHIFT  =0.1000    complex shift for real part using Kramers Kronig
   OMEGAMAX=  -1.0    maximum frequency
   DEG_THRESHOLD= 0.2000000E-02 threshold for treating states as degnerate
   RTIME   =   -0.100 relaxation time in fs
  (WPLASMAI=    0.000 imaginary part of plasma frequency in eV, 0.658/RTIME)
   DFIELD  = 0.0000000 0.0000000 0.0000000 field for delta impulse in time
 
 Orbital magnetization related:
   ORBITALMAG=     F  switch on orbital magnetization
   LCHIMAG   =     F  perturbation theory with respect to B field
   DQ        =  0.001000  dq finite difference perturbation B field
   LLRAUG    =     F  two centre corrections for induced B field



--------------------------------------------------------------------------------------------------------


 Static calculation
 charge density and potential remain constant during run
 non-spin polarized calculation
 Variant of blocked Davidson
 Davidson routine will perform the subspace rotation
 perform sub-space diagonalisation
    after iterative eigenvector-optimisation
 no mixing
 using additional bands            4
 reciprocal scheme for non local part
 use partial core corrections
 calculate Harris-corrections to forces 
   (improved forces if not selfconsistent)
 use gradient corrections 
 WARNING: stress and forces are not correct
  (second derivative of E(xc) not defined)
 use of overlap-Matrix (Vanderbilt PP)
 Gauss-broadening in eV      SIGMA  =   0.10


--------------------------------------------------------------------------------------------------------


  energy-cutoff  :      245.34
  volume of cell :       40.03
      direct lattice vectors                 reciprocal lattice vectors
     2.715000000  2.715000000  0.000000000     0.184162063  0.184162063 -0.184162063
     0.000000000  2.715000000  2.715000000    -0.184162063  0.184162063  0.184162063
     2.715000000  0.000000000  2.715000000     0.184162063 -0.184162063  0.184162063

  length of vectors
     3.839589822  3.839589822  3.839589822     0.318978049  0.318978049  0.318978049


 
 old parameters found on file WAVECAR:
  energy-cutoff  :      245.34
  volume of cell :       40.03
      direct lattice vectors                 reciprocal lattice vectors
     2.715000000  2.715000000  0.000000000     0.184162063  0.184162063 -0.184162063
     0.000000000  2.715000000  2.715000000    -0.184162063  0.184162063  0.184162063
     2.715000000  0.000000000  2.715000000     0.184162063 -0.184162063  0.184162063

  length of vectors

 
 k-points in units of 2pi/SCALE and weight: k-points for bandstructure L-G-X-U K-G  
   0.50000000  0.50000000  0.50000000       0.025
   0.44444444  0.44444444  0.44444444       0.025
   0.38888889  0.38888889  0.38888889       0.025
   0.33333333  0.33333333  0.33333333       0.025
   0.27777778  0.27777778  0.27777778       0.025
   0.22222222  0.22222222  0.22222222       0.025
   0.16666667  0.16666667  0.16666667       0.025
   0.11111111  0.11111111  0.11111111       0.025
   0.05555556  0.05555556  0.05555556       0.025
   0.00000000  0.00000000  0.00000000       0.025
   0.00000000  0.00000000  0.00000000       0.025
   0.00000000  0.00000000  0.11111111       0.025
   0.00000000  0.00000000  0.22222222       0.025
   0.00000000  0.00000000  0.33333333       0.025
   0.00000000  0.00000000  0.44444444       0.025
   0.00000000  0.00000000  0.55555556       0.025
   0.00000000  0.00000000  0.66666667       0.025
   0.00000000  0.00000000  0.77777778       0.025
   0.00000000  0.00000000  0.88888889       0.025
   0.00000000  0.00000000  1.00000000       0.025
   0.00000000  0.00000000  1.00000000       0.025
   0.02777778  0.02777778  1.00000000       0.025
   0.05555556  0.05555556  1.00000000       0.025
   0.08333333  0.08333333  1.00000000       0.025
   0.11111111  0.11111111  1.00000000       0.025
   0.13888889  0.13888889  1.00000000       0.025
   0.16666667  0.16666667  1.00000000       0.025
   0.19444444  0.19444444  1.00000000       0.025
   0.22222222  0.22222222  1.00000000       0.025
   0.25000000  0.25000000  1.00000000       0.025
   0.00000000  0.75000000  0.75000000       0.025
   0.00000000  0.66666667  0.66666667       0.025
   0.00000000  0.58333333  0.58333333       0.025
   0.00000000  0.50000000  0.50000000       0.025
   0.00000000  0.41666667  0.41666667       0.025
   0.00000000  0.33333333  0.33333333       0.025
   0.00000000  0.25000000  0.25000000       0.025
   0.00000000  0.16666667  0.16666667       0.025
   0.00000000  0.08333333  0.08333333       0.025
   0.00000000  0.00000000  0.00000000       0.025
 
 k-points in reciprocal lattice and weights: k-points for bandstructure L-G-X-U K-G  
   0.50000000  0.50000000  0.50000000       0.025
   0.44444444  0.44444444  0.44444444       0.025
   0.38888889  0.38888889  0.38888889       0.025
   0.33333333  0.33333333  0.33333333       0.025
   0.27777778  0.27777778  0.27777778       0.025
   0.22222222  0.22222222  0.22222222       0.025
   0.16666667  0.16666667  0.16666667       0.025
   0.11111111  0.11111111  0.11111111       0.025
   0.05555556  0.05555556  0.05555556       0.025
   0.00000000  0.00000000  0.00000000       0.025
   0.00000000  0.00000000  0.00000000       0.025
   0.00000000  0.05555556  0.05555556       0.025
   0.00000000  0.11111111  0.11111111       0.025
   0.00000000  0.16666667  0.16666667       0.025
   0.00000000  0.22222222  0.22222222       0.025
   0.00000000  0.27777778  0.27777778       0.025
   0.00000000  0.33333333  0.33333333       0.025
   0.00000000  0.38888889  0.38888889       0.025
   0.00000000  0.44444444  0.44444444       0.025
   0.00000000  0.50000000  0.50000000       0.025
   0.00000000  0.50000000  0.50000000       0.025
   0.02777778  0.51388889  0.51388889       0.025
   0.05555556  0.52777778  0.52777778       0.025
   0.08333333  0.54166667  0.54166667       0.025
   0.11111111  0.55555556  0.55555556       0.025
   0.13888889  0.56944444  0.56944444       0.025
   0.16666667  0.58333333  0.58333333       0.025
   0.19444444  0.59722222  0.59722222       0.025
   0.22222222  0.61111111  0.61111111       0.025
   0.25000000  0.62500000  0.62500000       0.025
   0.37500000  0.75000000  0.37500000       0.025
   0.33333333  0.66666667  0.33333333       0.025
   0.29166667  0.58333333  0.29166667       0.025
   0.25000000  0.50000000  0.25000000       0.025
   0.20833333  0.41666667  0.20833333       0.025
   0.16666667  0.33333333  0.16666667       0.025
   0.12500000  0.25000000  0.12500000       0.025
   0.08333333  0.16666667  0.08333333       0.025
   0.04166667  0.08333333  0.04166667       0.025
   0.00000000  0.00000000  0.00000000       0.025
 
 position of ions in fractional coordinates (direct lattice) 
   0.00000000  0.00000000  0.00000000
   0.25000000  0.25000000  0.25000000
 
 position of ions in cartesian coordinates  (Angst):
   0.00000000  0.00000000  0.00000000
   1.35750000  1.35750000  1.35750000
 


--------------------------------------------------------------------------------------------------------


 k-point  1 :   0.5000 0.5000 0.5000  plane waves:     344
 k-point  2 :   0.4444 0.4444 0.4444  plane waves:     356
 k-point  3 :   0.3889 0.3889 0.3889  plane waves:     353
 k-point  4 :   0.3333 0.3333 0.3333  plane waves:     347
 k-point  5 :   0.2778 0.2778 0.2778  plane waves:     350
 k-point  6 :   0.2222 0.2222 0.2222  plane waves:     353
 k-point  7 :   0.1667 0.1667 0.1667  plane waves:     344
 k-point  8 :   0.1111 0.1111 0.1111  plane waves:     335
 k-point  9 :   0.0556 0.0556 0.0556  plane waves:     335
 k-point 10 :   0.0000 0.0000 0.0000  plane waves:     339
 k-point 11 :   0.0000 0.0000 0.0000  plane waves:     339
 k-point 12 :   0.0000 0.0556 0.0556  plane waves:     335
 k-point 13 :   0.0000 0.1111 0.1111  plane waves:     339
 k-point 14 :   0.0000 0.1667 0.1667  plane waves:     343
 k-point 15 :   0.0000 0.2222 0.2222  plane waves:     347
 k-point 16 :   0.0000 0.2778 0.2778  plane waves:     347
 k-point 17 :   0.0000 0.3333 0.3333  plane waves:     343
 k-point 18 :   0.0000 0.3889 0.3889  plane waves:     343
 k-point 19 :   0.0000 0.4444 0.4444  plane waves:     343
 k-point 20 :   0.0000 0.5000 0.5000  plane waves:     342
 k-point 21 :   0.0000 0.5000 0.5000  plane waves:     342
 k-point 22 :   0.0278 0.5139 0.5139  plane waves:     342
 k-point 23 :   0.0556 0.5278 0.5278  plane waves:     342
 k-point 24 :   0.0833 0.5417 0.5417  plane waves:     346
 k-point 25 :   0.1111 0.5556 0.5556  plane waves:     347
 k-point 26 :   0.1389 0.5694 0.5694  plane waves:     357
 k-point 27 :   0.1667 0.5833 0.5833  plane waves:     359
 k-point 28 :   0.1944 0.5972 0.5972  plane waves:     359
 k-point 29 :   0.2222 0.6111 0.6111  plane waves:     359
 k-point 30 :   0.2500 0.6250 0.6250  plane waves:     347
 k-point 31 :   0.3750 0.7500 0.3750  plane waves:     347
 k-point 32 :   0.3333 0.6667 0.3333  plane waves:     353
 k-point 33 :   0.2917 0.5833 0.2917  plane waves:     357
 k-point 34 :   0.2500 0.5000 0.2500  plane waves:     343
 k-point 35 :   0.2083 0.4167 0.2083  plane waves:     351
 k-point 36 :   0.1667 0.3333 0.1667  plane waves:     341
 k-point 37 :   0.1250 0.2500 0.1250  plane waves:     337
 k-point 38 :   0.0833 0.1667 0.0833  plane waves:     339
 k-point 39 :   0.0417 0.0833 0.0417  plane waves:     337
 k-point 40 :   0.0000 0.0000 0.0000  plane waves:     339

 maximum and minimum number of plane-waves per node :       359      335

 maximum number of plane-waves:       359
 maximum index in each direction: 
   IXMAX=    4   IYMAX=    4   IZMAX=    4
   IXMIN=   -5   IYMIN=   -5   IZMIN=   -5


 serial   3D FFT for wavefunctions
 parallel 3D FFT for charge:
    minimum data exchange during FFTs selected (reduces bandwidth)


 total amount of memory used by VASP MPI-rank0    32299. kBytes
=======================================================================

   base      :      30000. kBytes
   nonl-proj :        933. kBytes
   fftplans  :        302. kBytes
   grid      :        577. kBytes
   one-center:          6. kBytes
   wavefun   :        481. kBytes
 
     INWAV:  cpu time    0.0107: real time    0.0109
 initial charge density was supplied:
 number of electron       7.9999994 magnetization 
 keeping initial charge density in first step


--------------------------------------------------------------------------------------------------------


 Maximum index for augmentation-charges          847 (set IRDMAX)


--------------------------------------------------------------------------------------------------------


 First call to EWALD:  gamma=   0.518
 Maximum number of real-space cells 3x 3x 3
 Maximum number of reciprocal cells 3x 3x 3

    FEWALD:  cpu time    0.0024: real time    0.0024


--------------------------------------- Iteration      1(   1)  ---------------------------------------


    POTLOK:  cpu time    0.0072: real time    0.0080
    SETDIJ:  cpu time    0.0018: real time    0.0018
     EDDAV:  cpu time    0.0447: real time    0.0448
       DOS:  cpu time    0.0005: real time    0.0005
    --------------------------------------------
      LOOP:  cpu time    0.0542: real time    0.0551

 eigenvalue-minimisations  :   320
 total energy-change (2. order) :-0.6815720E+01  (-0.3443410E-13)
 number of electron       7.9999994 magnetization 
 augmentation part        7.9999994 magnetization 

 Free energy of the ion-electron system (eV)
  ---------------------------------------------------
  alpha Z        PSCENC =         3.36414203
  Ewald energy   TEWEN  =      -228.56352493
  -Hartree energ DENC   =       -15.23357982
  -exchange      EXHF   =         0.00000000
  -V(xc)+E(xc)   XCENC  =       -17.91352029
  PAW double counting   =        75.26182406      -40.31544095
  entropy T*S    EENTRO =        -0.00000282
  eigenvalues    EBANDS =        10.46181049
  atomic energy  EATOM  =       206.12257231
  Solvation  Ediel_sol  =         0.00000000
  ---------------------------------------------------
  free energy    TOTEN  =        -6.81571992 eV

  energy without entropy =       -6.81571710  energy(sigma->0) =       -6.81571851


--------------------------------------------------------------------------------------------------------




--------------------------------------- Iteration      1(   2)  ---------------------------------------


     EDDAV:  cpu time    0.0393: real time    0.0395
       DOS:  cpu time    0.0004: real time    0.0004
    --------------------------------------------
      LOOP:  cpu time    0.0398: real time    0.0399

 eigenvalue-minimisations  :   320
 total energy-change (2. order) : 0.0000000E+00  ( 0.2642102E-13)
 number of electron       7.9999994 magnetization 
 augmentation part        7.9999994 magnetization 

 Free energy of the ion-electron system (eV)
  ---------------------------------------------------
  alpha Z        PSCENC =         3.36414203
  Ewald energy   TEWEN  =      -228.56352493
  -Hartree energ DENC   =       -15.23357982
  -exchange      EXHF   =         0.00000000
  -V(xc)+E(xc)   XCENC  =       -17.91352029
  PAW double counting   =        75.26182406      -40.31544095
  entropy T*S    EENTRO =        -0.00000282
  eigenvalues    EBANDS =        10.46181049
  atomic energy  EATOM  =       206.12257231
  Solvation  Ediel_sol  =         0.00000000
  ---------------------------------------------------
  free energy    TOTEN  =        -6.81571992 eV

  energy without entropy =       -6.81571710  energy(sigma->0) =       -6.81571851


--------------------------------------------------------------------------------------------------------




 average (electrostatic) potential at core
  the test charge radii are     0.9892
  (the norm of the test charge is              1.0000)
       1 -83.1778       2 -83.1778
 
 
 
 E-fermi :   6.1866     XC(G=0):  -9.3849     alpha+bet :-11.9845


 k-point     1 :       0.5000    0.5000    0.5000
  band No.  band energies     occupation 
      1      -3.7591      2.00000
      2      -1.1035      2.00000
      3       4.6781      2.00000
      4       4.6781      2.00000
      5       7.4217      0.00000
      6       9.2180      0.00000
      7       9.2180      0.00000
      8      13.5992      0.00000

 k-point     2 :       0.4444    0.4444    0.4444
  band No.  band energies     occupation 
      1      -3.9233      2.00000
      2      -0.8636      2.00000
      3       4.6996      2.00000
      4       4.6996      2.00000
      5       7.4468      0.00000
      6       9.2424      0.00000
      7       9.2424      0.00000
      8      13.6376      0.00000

 k-point     3 :       0.3889    0.3889    0.3889
  band No.  band energies     occupation 
      1      -4.2945      2.00000
      2      -0.2641      2.00000
      3       4.7663      2.00000
      4       4.7663      2.00000
      5       7.5237      0.00000
      6       9.3087      0.00000
      7       9.3087      0.00000
      8      13.7328      0.00000

 k-point     4 :       0.3333    0.3333    0.3333
  band No.  band energies     occupation 
      1      -4.7165      2.00000
      2       0.5363      2.00000
      3       4.8766      2.00000
      4       4.8766      2.00000
      5       7.6475      0.00000
      6       9.3847      0.00000
      7       9.3847      0.00000
      8      13.7470      0.00000

 k-point     5 :       0.2778    0.2778    0.2778
  band No.  band energies     occupation 
      1      -5.1147      2.00000
      2       1.4553      2.00000
      3       5.0285      2.00000
      4       5.0285      2.00000
      5       7.8154      0.00000
      6       9.4113      0.00000
      7       9.4113      0.00000
      8      13.2424      0.00000

 k-point     6 :       0.2222    0.2222    0.2222
  band No.  band energies     occupation 
      1      -5.4584      2.00000
      2       2.4524      2.00000
      3       5.2167      2.00000
      4       5.2167      2.00000
      5       8.0150      0.00000
      6       9.3182      0.00000
      7       9.3182      0.00000
      8      12.3364      0.00000

 k-point     7 :       0.1667    0.1667    0.1667
  band No.  band energies     occupation 
      1      -5.7335      2.00000
      2       3.4957      2.00000
      3       5.4304      2.00000
      4       5.4304      2.00000
      5       8.2309      0.00000
      6       9.0870      0.00000
      7       9.0870      0.00000
      8      11.3438      0.00000

 k-point     8 :       0.1111    0.1111    0.1111
  band No.  band energies     occupation 
      1      -5.9333      2.00000
      2       4.5363      2.00000
      3       5.6459      2.00000
      4       5.6459      2.00000
      5       8.4229      0.00000
      6       8.7880      0.00000
      7       8.7880      0.00000
      8      10.3630      0.00000

 k-point     9 :       0.0556    0.0556    0.0556
  band No.  band energies     occupation 
      1      -6.0545      2.00000
      2       5.4521      2.00000
      3       5.8178      2.00000
      4       5.8178      2.00000
      5       8.5009      0.00000
      6       8.5353      0.00000
      7       8.5353      0.00000
      8       9.5544      0.00000

 k-point    10 :       0.0000    0.0000    0.0000
  band No.  band energies     occupation 
      1      -6.0951      2.00000
      2       5.8852      1.99998
      3       5.8852      1.99998
      4       5.8852      1.99998
      5       8.4349      0.00000
      6       8.4349      0.00000
      7       8.4349      0.00000
      8       9.2556      0.00000

 k-point    11 :       0.0000    0.0000    0.0000
  band No.  band energies     occupation 
      1      -6.0951      2.00000
      2       5.8852      1.99998
      3       5.8852      1.99998
      4       5.8852      1.99998
      5       8.4349      0.00000
      6       8.4349      0.00000
      7       8.4349      0.00000
      8       9.2556      0.00000

 k-point    12 :       0.0000    0.0556    0.0556
  band No.  band energies     occupation 
      1      -6.0409      2.00000
      2       5.5462      2.00000
      3       5.6707      2.00000
      4       5.6707      2.00000
      5       8.3062      0.00000
      6       8.7176      0.00000
      7       8.7176      0.00000
      8       9.5820      0.00000

 k-point    13 :       0.0000    0.1111    0.1111
  band No.  band energies     occupation 
      1      -5.8790      2.00000
      2       4.7741      2.00000
      3       5.2017      2.00000
      4       5.2017      2.00000
      5       7.9816      0.00000
      6       9.3853      0.00000
      7       9.3853      0.00000
      8      10.1885      0.00000

 k-point    14 :       0.0000    0.1667    0.1667
  band No.  band energies     occupation 
      1      -5.6105      2.00000
      2       3.8447      2.00000
      3       4.6821      2.00000
      4       4.6821      2.00000
      5       7.5764      0.00000
      6      10.1868      0.00000
      7      10.2302      0.00000
      8      10.2302      0.00000

 k-point    15 :       0.0000    0.2222    0.2222
  band No.  band energies     occupation 
      1      -5.2371      2.00000
      2       2.8617      2.00000
      3       4.1992      2.00000
      4       4.1992      2.00000
      5       7.1799      0.00000
      6       9.4385      0.00000
      7      11.1606      0.00000
      8      11.1606      0.00000

 k-point    16 :       0.0000    0.2778    0.2778
  band No.  band energies     occupation 
      1      -4.7617      2.00000
      2       1.8626      2.00000
      3       3.7844      2.00000
      4       3.7844      2.00000
      5       6.8446      0.00000
      6       8.6024      0.00000
      7      12.1455      0.00000
      8      12.1455      0.00000

 k-point    17 :       0.0000    0.3333    0.3333
  band No.  band energies     occupation 
      1      -4.1882      2.00000
      2       0.8663      2.00000
      3       3.4527      2.00000
      4       3.4527      2.00000
      5       6.6010      0.00000
      6       7.8699      0.00000
      7      13.1619      0.00000
      8      13.1619      0.00000

 k-point    18 :       0.0000    0.3889    0.3889
  band No.  band energies     occupation 
      1      -3.5226      2.00000
      2      -0.1108      2.00000
      3       3.2111      2.00000
      4       3.2111      2.00000
      5       6.4678      0.00007
      6       7.2854      0.00000
      7      14.2103      0.00000
      8      14.2104      0.00000

 k-point    19 :       0.0000    0.4444    0.4444
  band No.  band energies     occupation 
      1      -2.7718      2.00000
      2      -1.0536      2.00000
      3       3.0653      2.00000
      4       3.0653      2.00000
      5       6.4593      0.00012
      6       6.8583      0.00000
      7      15.2601      0.00000
      8      15.2601      0.00000

 k-point    20 :       0.0000    0.5000    0.5000
  band No.  band energies     occupation 
      1      -1.9450      2.00000
      2      -1.9450      2.00000
      3       3.0164      2.00000
      4       3.0164      2.00000
      5       6.5860      0.00000
      6       6.5860      0.00000
      7      16.0017      0.00000
      8      16.0018      0.00000

 k-point    21 :       0.0000    0.5000    0.5000
  band No.  band energies     occupation 
      1      -1.9450      2.00000
      2      -1.9450      2.00000
      3       3.0164      2.00000
      4       3.0164      2.00000
      5       6.5860      0.00000
      6       6.5860      0.00000
      7      16.0017      0.00000
      8      16.0018      0.00000

 k-point    22 :       0.0278    0.5139    0.5139
  band No.  band energies     occupation 
      1      -1.9478      2.00000
      2      -1.9377      2.00000
      3       2.9703      2.00000
      4       3.0219      2.00000
      5       6.5923      0.00000
      6       6.6545      0.00000
      7      15.9269      0.00000
      8      15.9613      0.00000

 k-point    23 :       0.0556    0.5278    0.5278
  band No.  band energies     occupation 
      1      -1.9565      2.00000
      2      -1.9158      2.00000
      3       2.8427      2.00000
      4       3.0381      2.00000
      5       6.6110      0.00000
      6       6.8496      0.00000
      7      15.7265      0.00000
      8      15.8462      0.00000

 k-point    24 :       0.0833    0.5417    0.5417
  band No.  band energies     occupation 
      1      -1.9724      2.00000
      2      -1.8792      2.00000
      3       2.6588      2.00000
      4       3.0652      2.00000
      5       6.6423      0.00000
      6       7.1464      0.00000
      7      15.4436      0.00000
      8      15.6698      0.00000

 k-point    25 :       0.1111    0.5556    0.5556
  band No.  band energies     occupation 
      1      -1.9974      2.00000
      2      -1.8281      2.00000
      3       2.4463      2.00000
      4       3.1029      2.00000
      5       6.6859      0.00000
      6       7.5194      0.00000
      7      15.1195      0.00000
      8      15.4531      0.00000

 k-point    26 :       0.1389    0.5694    0.5694
  band No.  band energies     occupation 
      1      -2.0341      2.00000
      2      -1.7625      2.00000
      3       2.2274      2.00000
      4       3.1510      2.00000
      5       6.7401      0.00000
      6       7.9500      0.00000
      7      14.7683      0.00000
      8      15.2071      0.00000

 k-point    27 :       0.1667    0.5833    0.5833
  band No.  band energies     occupation 
      1      -2.0856      2.00000
      2      -1.6823      2.00000
      3       2.0189      2.00000
      4       3.2096      2.00000
      5       6.8078      0.00000
      6       8.4235      0.00000
      7      14.4115      0.00000
      8      14.9447      0.00000

 k-point    28 :       0.1944    0.5972    0.5972
  band No.  band energies     occupation 
      1      -2.1551      2.00000
      2      -1.5875      2.00000
      3       1.8331      2.00000
      4       3.2783      2.00000
      5       6.8872      0.00000
      6       8.9300      0.00000
      7      14.0550      0.00000
      8      14.6633      0.00000

 k-point    29 :       0.2222    0.6111    0.6111
  band No.  band energies     occupation 
      1      -2.2454      2.00000
      2      -1.4784      2.00000
      3       1.6786      2.00000
      4       3.3568      2.00000
      5       6.9779      0.00000
      6       9.4624      0.00000
      7      13.7011      0.00000
      8      14.2879      0.00000

 k-point    30 :       0.2500    0.6250    0.6250
  band No.  band energies     occupation 
      1      -2.3580      2.00000
      2      -1.3543      2.00000
      3       1.5617      2.00000
      4       3.4447      2.00000
      5       7.0799      0.00000
      6      10.0163      0.00000
      7      13.3545      0.00000
      8      13.9293      0.00000

 k-point    31 :       0.3750    0.7500    0.3750
  band No.  band energies     occupation 
      1      -2.3580      2.00000
      2      -1.3543      2.00000
      3       1.5617      2.00000
      4       3.4447      2.00000
      5       7.0799      0.00000
      6      10.0163      0.00000
      7      13.3545      0.00000
      8      13.9293      0.00000

 k-point    32 :       0.3333    0.6667    0.3333
  band No.  band energies     occupation 
      1      -2.8256      2.00000
      2      -0.8977      2.00000
      3       1.4506      2.00000
      4       3.7593      2.00000
      5       7.4435      0.00000
      6      11.7007      0.00000
      7      12.3591      0.00000
      8      12.9770      0.00000

 k-point    33 :       0.2917    0.5833    0.2917
  band No.  band energies     occupation 
      1      -3.4221      2.00000
      2      -0.3140      2.00000
      3       1.6628      2.00000
      4       4.1355      2.00000
      5       7.8756      0.00000
      6      11.4563      0.00000
      7      11.8146      0.00000
      8      12.6020      0.00000

 k-point    34 :       0.2500    0.5000    0.2500
  band No.  band energies     occupation 
      1      -4.0484      2.00000
      2       0.3943      2.00000
      3       2.1131      2.00000
      4       4.5471      2.00000
      5       8.3294      0.00000
      6      10.6663      0.00000
      7      11.0397      0.00000
      8      12.0311      0.00000

 k-point    35 :       0.2083    0.4167    0.2083
  band No.  band energies     occupation 
      1      -4.6357      2.00000
      2       1.2210      2.00000
      3       2.7287      2.00000
      4       4.9550      2.00000
      5       8.7137      0.00000
      6       9.9879      0.00000
      7      10.3364      0.00000
      8      11.6675      0.00000

 k-point    36 :       0.1667    0.3333    0.1667
  band No.  band energies     occupation 
      1      -5.1445      2.00000
      2       2.1594      2.00000
      3       3.4578      2.00000
      4       5.3165      2.00000
      5       8.9200      0.00000
      6       9.4329      0.00000
      7       9.7416      0.00000
      8      11.5513      0.00000

 k-point    37 :       0.1250    0.2500    0.1250
  band No.  band energies     occupation 
      1      -5.5541      2.00000
      2       3.1950      2.00000
      3       4.2453      2.00000
      4       5.5914      2.00000
      5       8.9217      0.00000
      6       8.9980      0.00000
      7       9.2470      0.00000
      8      11.4391      0.00000

 k-point    38 :       0.0833    0.1667    0.0833
  band No.  band energies     occupation 
      1      -5.8529      2.00000
      2       4.2915      2.00000
      3       5.0136      2.00000
      4       5.7664      2.00000
      5       8.6852      0.00000
      6       8.8106      0.00000
      7       8.8490      0.00000
      8      10.7152      0.00000

 k-point    39 :       0.0417    0.0833    0.0417
  band No.  band energies     occupation 
      1      -6.0343      2.00000
      2       5.3379      2.00000
      3       5.6323      2.00000
      4       5.8578      2.00000
      5       8.4975      0.00000
      6       8.5562      0.00000
      7       8.6355      0.00000
      8       9.6908      0.00000

 k-point    40 :       0.0000    0.0000    0.0000
  band No.  band energies     occupation 
      1      -6.0951      2.00000
      2       5.8852      1.99998
      3       5.8852      1.99998
      4       5.8852      1.99998
      5       8.4349      0.00000
      6       8.4349      0.00000
      7       8.4349      0.00000
      8       9.2556      0.00000


--------------------------------------------------------------------------------------------------------


 soft charge-density along one line, spin component           1
         0         1         2         3         4         5         6         7         8         9
 total charge-density along one line
 
 pseudopotential strength for first ion, spin component:           1
 18.409  -0.001  -0.000  -0.000  -0.000   0.000   0.000   0.000
 -0.001   0.006   0.000   0.000   0.000  -0.000  -0.000  -0.000
 -0.000   0.000   4.179  -0.000  -0.000  -0.005   0.000   0.000
 -0.000   0.000  -0.000   4.179  -0.000   0.000  -0.005   0.000
 -0.000   0.000  -0.000  -0.000   4.179   0.000   0.000  -0.005
  0.000  -0.000  -0.005   0.000   0.000   0.005  -0.000  -0.000
  0.000  -0.000   0.000  -0.005   0.000  -0.000   0.005  -0.000
  0.000  -0.000   0.000   0.000  -0.005  -0.000  -0.000   0.005
 total augmentation occupancy for first ion, spin component:           1
  2.000   0.000   0.000   0.000   0.000   0.000   0.000   0.000
  0.000   0.000   0.000   0.000   0.000   0.000   0.000   0.000
  0.000   0.000   0.667   0.000   0.000   0.000   0.000   0.000
  0.000   0.000   0.000   0.667   0.000   0.000   0.000   0.000
  0.000   0.000   0.000   0.000   0.667   0.000   0.000   0.000
  0.000   0.000   0.000   0.000   0.000   0.000   0.000   0.000
  0.000   0.000   0.000   0.000   0.000   0.000   0.000   0.000
  0.000   0.000   0.000   0.000   0.000   0.000   0.000   0.000


------------------------ aborting loop because EDIFF is reached ----------------------------------------


 


 total charge     
 
# of ion       s       p       d       tot
------------------------------------------
    1        0.678   1.059   0.000   1.736
    2        0.678   1.059   0.000   1.736
--------------------------------------------------
tot          1.355   2.118   0.000   3.473
 
    CHARGE:  cpu time    0.0033: real time    0.0033
    FORLOC:  cpu time    0.0003: real time    0.0003
    FORNL :  cpu time    0.0061: real time    0.0061
    STRESS:  cpu time    0.0434: real time    0.0434
    FORCOR:  cpu time    0.0041: real time    0.0041
    FORHAR:  cpu time    0.0009: real time    0.0009
    OFIELD:  cpu time    0.0000: real time    0.0000

  FORCE on cell =-STRESS in cart. coord.  units (eV):
  Direction    XX          YY          ZZ          XY          YZ          ZX
  --------------------------------------------------------------------------------------
  Alpha Z     3.36414     3.36414     3.36414
  Ewald     -76.18788   -76.18788   -76.18788    -0.00000     0.00000     0.00000
  Hartree     5.81434     5.81434     5.81434     0.00000     0.00000     0.00000
  E(xc)     -25.51450   -25.51450   -25.51450     0.00001     0.00001     0.00001
  Local     -31.11693   -31.11693   -31.11693     0.00005     0.00005     0.00005
  n-local    77.79614    78.87493    73.81078    -1.27128    -1.85125    -0.82853
  augment   -10.95426   -10.95426   -10.95426    -0.00004    -0.00004    -0.00004
  Kinetic    63.31758    64.02121    58.85513    -1.75610    -1.32984    -0.93489
  Fock        0.00000     0.00000     0.00000     0.00000     0.00000     0.00000
  -------------------------------------------------------------------------------------
  Total       4.29685     4.29685     4.29685     0.00000     0.00000     0.00000
  in kB     171.99712   171.99712   171.99712     0.00000     0.00000     0.00000
  external pressure =      172.00 kB  Pullay stress =        0.00 kB


 VOLUME and BASIS-vectors are now :
 -----------------------------------------------------------------------------
  energy-cutoff  :      245.34
  volume of cell :       40.03
      direct lattice vectors                 reciprocal lattice vectors
     2.715000000  2.715000000  0.000000000     0.184162063  0.184162063 -0.184162063
     0.000000000  2.715000000  2.715000000    -0.184162063  0.184162063  0.184162063
     2.715000000  0.000000000  2.715000000     0.184162063 -0.184162063  0.184162063

  length of vectors
     3.839589822  3.839589822  3.839589822     0.318978049  0.318978049  0.318978049


 FORCES acting on ions
    electron-ion (+dipol)            ewald-force                    non-local-force                 convergence-correction
 -----------------------------------------------------------------------------------------------
   0.361E-05 0.369E-05 0.361E-05   -.273E-14 0.111E-14 0.310E-14   -.416E-16 -.694E-17 -.347E-17   0.109E-06 0.113E-06 0.109E-06
   -.361E-05 -.369E-05 -.361E-05   0.315E-14 -.993E-15 -.291E-14   0.000E+00 0.243E-16 0.694E-17   -.109E-06 -.113E-06 -.109E-06
 -----------------------------------------------------------------------------------------------
   0.140E-13 0.254E-13 0.289E-13   0.422E-15 0.120E-15 0.187E-15   -.416E-16 0.173E-16 0.347E-17   0.749E-14 -.741E-14 0.761E-14
 
 
 POSITION                                       TOTAL-FORCE (eV/Angst)
 -----------------------------------------------------------------------------------
      0.00000      0.00000      0.00000         0.000000      0.000000      0.000000
      1.35750      1.35750      1.35750        -0.000000     -0.000000     -0.000000
 -----------------------------------------------------------------------------------
    total drift:                                0.000000      0.000000      0.000000


--------------------------------------------------------------------------------------------------------



  FREE ENERGIE OF THE ION-ELECTRON SYSTEM (eV)
  ---------------------------------------------------
  free  energy   TOTEN  =        -6.81571992 eV

  energy  without entropy=       -6.81571710  energy(sigma->0) =       -6.81571851
 


--------------------------------------------------------------------------------------------------------


    POTLOK:  cpu time    0.0052: real time    0.0052


--------------------------------------------------------------------------------------------------------


 writing wavefunctions
     LOOP+:  cpu time    0.2023: real time    0.2103
    4ORBIT:  cpu time    0.0000: real time    0.0000
 


 total charge     
 
# of ion       s       p       d       tot
------------------------------------------
    1        0.678   1.059   0.000   1.736
    2        0.678   1.059   0.000   1.736
--------------------------------------------------
tot          1.355   2.118   0.000   3.473
 

 total amount of memory used by VASP MPI-rank0    32299. kBytes
=======================================================================

   base      :      30000. kBytes
   nonl-proj :        933. kBytes
   fftplans  :        302. kBytes
   grid      :        577. kBytes
   one-center:          6. kBytes
   wavefun   :        481. kBytes
 
  
  
 General timing and accounting informations for this job:
 ========================================================
  
                  Total CPU time used (sec):        0.520
                            User time (sec):        0.463
                          System time (sec):        0.057
                         Elapsed time (sec):        0.644
  
                   Maximum memory used (kb):       30172.
                   Average memory used (kb):           0.
  
                          Minor page faults:         8194
                          Major page faults:            0
                 Voluntary context switches:          823
