PROCAR lm decomposed
# of k-points:   40         # of bands:    8         # of ions:    2

 k-point     1 :    0.50000000 0.50000000 0.50000000     weight = 0.02500000

band     1 # energy   -3.75909499 # occ.  2.00000000
 
ion      s     py     pz     px    dxy    dyz    dz2    dxz  x2-y2    tot
    1  0.226  0.005  0.005  0.005  0.000  0.000  0.000  0.000  0.000  0.240
    2  0.226  0.005  0.005  0.005  0.000  0.000  0.000  0.000  0.000  0.240
tot    0.452  0.009  0.009  0.009  0.000  0.000  0.000  0.000  0.000  0.480
 
band     2 # energy   -1.10350985 # occ.  2.00000000
 
ion      s     py     pz     px    dxy    dyz    dz2    dxz  x2-y2    tot
    1  0.098  0.032  0.032  0.032  0.000  0.000  0.000  0.000  0.000  0.194
    2  0.098  0.032  0.032  0.032  0.000  0.000  0.000  0.000  0.000  0.194
tot    0.196  0.064  0.064  0.064  0.000  0.000  0.000  0.000  0.000  0.388
 
band     3 # energy    4.67805525 # occ.  2.00000000
 
ion      s     py     pz     px    dxy    dyz    dz2    dxz  x2-y2    tot
    1  0.000  0.000  0.111  0.111  0.000  0.000  0.000  0.000  0.000  0.221
    2  0.000  0.000  0.111  0.111  0.000  0.000  0.000  0.000  0.000  0.221
tot    0.000  0.000  0.221  0.221  0.000  0.000  0.000  0.000  0.000  0.442
 
band     4 # energy    4.67805525 # occ.  2.00000000
 
ion      s     py     pz     px    dxy    dyz    dz2    dxz  x2-y2    tot
    1  0.000  0.147  0.037  0.037  0.000  0.000  0.000  0.000  0.000  0.221
    2  0.000  0.147  0.037  0.037  0.000  0.000  0.000  0.000  0.000  0.221
tot    0.000  0.295  0.074  0.074  0.000  0.000  0.000  0.000  0.000  0.442
 
band     5 # energy    7.42167295 # occ.  0.00000000
 
ion      s     py     pz     px    dxy    dyz    dz2    dxz  x2-y2    tot
    1  0.188  0.007  0.007  0.007  0.000  0.000  0.000  0.000  0.000  0.208
    2  0.188  0.007  0.007  0.007  0.000  0.000  0.000  0.000  0.000  0.208
tot    0.376  0.013  0.013  0.013  0.000  0.000  0.000  0.000  0.000  0.415
 
band     6 # energy    9.21804795 # occ.  0.00000000
 
ion      s     py     pz     px    dxy    dyz    dz2    dxz  x2-y2    tot
    1  0.000  0.000  0.048  0.048  0.000  0.000  0.000  0.000  0.000  0.096
    2  0.000  0.000  0.048  0.048  0.000  0.000  0.000  0.000  0.000  0.096
tot    0.000  0.000  0.096  0.096  0.000  0.000  0.000  0.000  0.000  0.192
 
band     7 # energy    9.21804795 # occ.  0.00000000
 
ion      s     py     pz     px    dxy    dyz    dz2    dxz  x2-y2    tot
    1  0.000  0.064  0.016  0.016  0.000  0.000  0.000  0.000  0.000  0.096
    2  0.000  0.064  0.016  0.016  0.000  0.000  0.000  0.000  0.000  0.096
tot    0.000  0.128  0.032  0.032  0.000  0.000  0.000  0.000  0.000  0.192
 
band     8 # energy   13.59919102 # occ.  0.00000000
 
ion      s     py     pz     px    dxy    dyz    dz2    dxz  x2-y2    tot
    1  0.006  0.018  0.018  0.018  0.000  0.000  0.000  0.000  0.000  0.059
    2  0.006  0.018  0.018  0.018  0.000  0.000  0.000  0.000  0.000  0.059
tot    0.012  0.035  0.035  0.035  0.000  0.000  0.000  0.000  0.000  0.118
 

 k-point     2 :    0.44444444 0.44444444 0.44444444     weight = 0.02500000

band     1 # energy   -3.92332459 # occ.  2.00000000
 
ion      s     py     pz     px    dxy    dyz    dz2    dxz  x2-y2    tot
    1  0.221  0.005  0.005  0.005  0.000  0.000  0.000  0.000  0.000  0.236
    2  0.221  0.005  0.005  0.005  0.000  0.000  0.000  0.000  0.000  0.236
tot    0.442  0.010  0.010  0.010  0.000  0.000  0.000  0.000  0.000  0.471
 
band     2 # energy   -0.86360412 # occ.  2.00000000
 
ion      s     py     pz     px    dxy    dyz    dz2    dxz  x2-y2    tot
    1  0.102  0.032  0.032  0.032  0.000  0.000  0.000  0.000  0.000  0.198
    2  0.102  0.032  0.032  0.032  0.000  0.000  0.000  0.000  0.000  0.198
tot    0.204  0.064  0.064  0.064  0.000  0.000  0.000  0.000  0.000  0.395
 
band     3 # energy    4.69964526 # occ.  2.00000000
 
ion      s     py     pz     px    dxy    dyz    dz2    dxz  x2-y2    tot
    1  0.000  0.000  0.110  0.110  0.000  0.000  0.000  0.000  0.000  0.221
    2  0.000  0.000  0.110  0.110  0.000  0.000  0.000  0.000  0.000  0.221
tot    0.000  0.000  0.221  0.221  0.000  0.000  0.000  0.000  0.000  0.441
 
band     4 # energy    4.69964527 # occ.  2.00000000
 
ion      s     py     pz     px    dxy    dyz    dz2    dxz  x2-y2    tot
    1  0.000  0.147  0.037  0.037  0.000  0.000  0.000  0.000  0.000  0.221
    2  0.000  0.147  0.037  0.037  0.000  0.000  0.000  0.000  0.000  0.221
tot    0.000  0.294  0.074  0.074  0.000  0.000  0.000  0.000  0.000  0.441
 
band     5 # energy    7.44676600 # occ.  0.00000000
 
ion      s     py     pz     px    dxy    dyz    dz2    dxz  x2-y2    tot
    1  0.187  0.007  0.007  0.007  0.000  0.000  0.000  0.000  0.000  0.207
    2  0.187  0.007  0.007  0.007  0.000  0.000  0.000  0.000  0.000  0.207
tot    0.373  0.014  0.014  0.014  0.000  0.000  0.000  0.000  0.000  0.415
 
band     6 # energy    9.24243806 # occ.  0.00000000
 
ion      s     py     pz     px    dxy    dyz    dz2    dxz  x2-y2    tot
    1  0.000  0.000  0.049  0.049  0.000  0.000  0.000  0.000  0.000  0.098
    2  0.000  0.000  0.049  0.049  0.000  0.000  0.000  0.000  0.000  0.098
tot    0.000  0.000  0.098  0.098  0.000  0.000  0.000  0.000  0.000  0.195
 
band     7 # energy    9.24243807 # occ.  0.00000000
 
ion      s     py     pz     px    dxy    dyz    dz2    dxz  x2-y2    tot
    1  0.000  0.065  0.016  0.016  0.000  0.000  0.000  0.000  0.000  0.098
    2  0.000  0.065  0.016  0.016  0.000  0.000  0.000  0.000  0.000  0.098
tot    0.000  0.130  0.033  0.033  0.000  0.000  0.000  0.000  0.000  0.195
 
band     8 # energy   13.63757426 # occ.  0.00000000
 
ion      s     py     pz     px    dxy    dyz    dz2    dxz  x2-y2    tot
    1  0.005  0.019  0.019  0.019  0.000  0.000  0.000  0.000  0.000  0.062
    2  0.005  0.019  0.019  0.019  0.000  0.000  0.000  0.000  0.000  0.062
tot    0.011  0.038  0.038  0.038  0.000  0.000  0.000  0.000  0.000  0.125
 

 k-point     3 :    0.38888889 0.38888889 0.38888889     weight = 0.02500000

band     1 # energy   -4.29454367 # occ.  2.00000000
 
ion      s     py     pz     px    dxy    dyz    dz2    dxz  x2-y2    tot
    1  0.215  0.005  0.005  0.005  0.000  0.000  0.000  0.000  0.000  0.229
    2  0.215  0.005  0.005  0.005  0.000  0.000  0.000  0.000  0.000  0.229
tot    0.429  0.010  0.010  0.010  0.000  0.000  0.000  0.000  0.000  0.459
 
band     2 # energy   -0.26406219 # occ.  2.00000000
 
ion      s     py     pz     px    dxy    dyz    dz2    dxz  x2-y2    tot
    1  0.106  0.033  0.033  0.033  0.000  0.000  0.000  0.000  0.000  0.204
    2  0.106  0.033  0.033  0.033  0.000  0.000  0.000  0.000  0.000  0.204
tot    0.212  0.065  0.065  0.065  0.000  0.000  0.000  0.000  0.000  0.409
 
band     3 # energy    4.76625979 # occ.  2.00000000
 
ion      s     py     pz     px    dxy    dyz    dz2    dxz  x2-y2    tot
    1  0.000  0.000  0.110  0.110  0.000  0.000  0.000  0.000  0.000  0.220
    2  0.000  0.000  0.110  0.110  0.000  0.000  0.000  0.000  0.000  0.220
tot    0.000  0.000  0.220  0.220  0.000  0.000  0.000  0.000  0.000  0.440
 
band     4 # energy    4.76625979 # occ.  2.00000000
 
ion      s     py     pz     px    dxy    dyz    dz2    dxz  x2-y2    tot
    1  0.000  0.147  0.037  0.037  0.000  0.000  0.000  0.000  0.000  0.220
    2  0.000  0.147  0.037  0.037  0.000  0.000  0.000  0.000  0.000  0.220
tot    0.000  0.293  0.073  0.073  0.000  0.000  0.000  0.000  0.000  0.440
 
band     5 # energy    7.52373265 # occ.  0.00000000
 
ion      s     py     pz     px    dxy    dyz    dz2    dxz  x2-y2    tot
    1  0.182  0.008  0.008  0.008  0.000  0.000  0.000  0.000  0.000  0.207
    2  0.182  0.008  0.008  0.008  0.000  0.000  0.000  0.000  0.000  0.207
tot    0.364  0.017  0.017  0.017  0.000  0.000  0.000  0.000  0.000  0.413
 
band     6 # energy    9.30869325 # occ.  0.00000000
 
ion      s     py     pz     px    dxy    dyz    dz2    dxz  x2-y2    tot
    1  0.000  0.000  0.052  0.052  0.000  0.000  0.000  0.000  0.000  0.104
    2  0.000  0.000  0.052  0.052  0.000  0.000  0.000  0.000  0.000  0.104
tot    0.000  0.000  0.104  0.104  0.000  0.000  0.000  0.000  0.000  0.209
 
band     7 # energy    9.30869325 # occ.  0.00000000
 
ion      s     py     pz     px    dxy    dyz    dz2    dxz  x2-y2    tot
    1  0.000  0.070  0.017  0.017  0.000  0.000  0.000  0.000  0.000  0.104
    2  0.000  0.070  0.017  0.017  0.000  0.000  0.000  0.000  0.000  0.104
tot    0.000  0.139  0.035  0.035  0.000  0.000  0.000  0.000  0.000  0.209
 
band     8 # energy   13.73284623 # occ.  0.00000000
 
ion      s     py     pz     px    dxy    dyz    dz2    dxz  x2-y2    tot
    1  0.004  0.025  0.025  0.025  0.000  0.000  0.000  0.000  0.000  0.078
    2  0.004  0.025  0.025  0.025  0.000  0.000  0.000  0.000  0.000  0.078
tot    0.008  0.049  0.049  0.049  0.000  0.000  0.000  0.000  0.000  0.156
 

 k-point     4 :    0.33333333 0.33333333 0.33333333     weight = 0.02500000

band     1 # energy   -4.71648354 # occ.  2.00000000
 
ion      s     py     pz     px    dxy    dyz    dz2    dxz  x2-y2    tot
    1  0.212  0.004  0.004  0.004  0.000  0.000  0.000  0.000  0.000  0.224
    2  0.212  0.004  0.004  0.004  0.000  0.000  0.000  0.000  0.000  0.224
tot    0.423  0.009  0.009  0.009  0.000  0.000  0.000  0.000  0.000  0.449
 
band     2 # energy    0.53633569 # occ.  2.00000000
 
ion      s     py     pz     px    dxy    dyz    dz2    dxz  x2-y2    tot
    1  0.105  0.035  0.035  0.035  0.000  0.000  0.000  0.000  0.000  0.210
    2  0.105  0.035  0.035  0.035  0.000  0.000  0.000  0.000  0.000  0.210
tot    0.210  0.070  0.070  0.070  0.000  0.000  0.000  0.000  0.000  0.421
 
band     3 # energy    4.87664319 # occ.  2.00000000
 
ion      s     py     pz     px    dxy    dyz    dz2    dxz  x2-y2    tot
    1  0.000  0.000  0.109  0.109  0.000  0.000  0.000  0.000  0.000  0.218
    2  0.000  0.000  0.109  0.109  0.000  0.000  0.000  0.000  0.000  0.218
tot    0.000  0.000  0.218  0.218  0.000  0.000  0.000  0.000  0.000  0.437
 
band     4 # energy    4.87664320 # occ.  2.00000000
 
ion      s     py     pz     px    dxy    dyz    dz2    dxz  x2-y2    tot
    1  0.000  0.146  0.036  0.036  0.000  0.000  0.000  0.000  0.000  0.218
    2  0.000  0.146  0.036  0.036  0.000  0.000  0.000  0.000  0.000  0.218
tot    0.000  0.291  0.073  0.073  0.000  0.000  0.000  0.000  0.000  0.437
 
band     5 # energy    7.64752507 # occ.  0.00000000
 
ion      s     py     pz     px    dxy    dyz    dz2    dxz  x2-y2    tot
    1  0.174  0.011  0.011  0.011  0.000  0.000  0.000  0.000  0.000  0.206
    2  0.174  0.011  0.011  0.011  0.000  0.000  0.000  0.000  0.000  0.206
tot    0.348  0.021  0.021  0.021  0.000  0.000  0.000  0.000  0.000  0.412
 
band     6 # energy    9.38467783 # occ.  0.00000000
 
ion      s     py     pz     px    dxy    dyz    dz2    dxz  x2-y2    tot
    1  0.000  0.000  0.058  0.058  0.000  0.000  0.000  0.000  0.000  0.116
    2  0.000  0.000  0.058  0.058  0.000  0.000  0.000  0.000  0.000  0.116
tot    0.000  0.000  0.116  0.116  0.000  0.000  0.000  0.000  0.000  0.232
 
band     7 # energy    9.38467783 # occ.  0.00000000
 
ion      s     py     pz     px    dxy    dyz    dz2    dxz  x2-y2    tot
    1  0.000  0.077  0.019  0.019  0.000  0.000  0.000  0.000  0.000  0.116
    2  0.000  0.077  0.019  0.019  0.000  0.000  0.000  0.000  0.000  0.116
tot    0.000  0.155  0.039  0.039  0.000  0.000  0.000  0.000  0.000  0.232
 
band     8 # energy   13.74696392 # occ.  0.00000000
 
ion      s     py     pz     px    dxy    dyz    dz2    dxz  x2-y2    tot
    1  0.016  0.042  0.042  0.042  0.000  0.000  0.000  0.000  0.000  0.141
    2  0.016  0.042  0.042  0.042  0.000  0.000  0.000  0.000  0.000  0.141
tot    0.032  0.083  0.083  0.083  0.000  0.000  0.000  0.000  0.000  0.282
 

 k-point     5 :    0.27777778 0.27777778 0.27777778     weight = 0.02500000

band     1 # energy   -5.11469094 # occ.  2.00000000
 
ion      s     py     pz     px    dxy    dyz    dz2    dxz  x2-y2    tot
    1  0.211  0.003  0.003  0.003  0.000  0.000  0.000  0.000  0.000  0.221
    2  0.211  0.003  0.003  0.003  0.000  0.000  0.000  0.000  0.000  0.221
tot    0.422  0.007  0.007  0.007  0.000  0.000  0.000  0.000  0.000  0.442
 
band     2 # energy    1.45527156 # occ.  2.00000000
 
ion      s     py     pz     px    dxy    dyz    dz2    dxz  x2-y2    tot
    1  0.099  0.038  0.038  0.038  0.000  0.000  0.000  0.000  0.000  0.215
    2  0.099  0.038  0.038  0.038  0.000  0.000  0.000  0.000  0.000  0.215
tot    0.199  0.077  0.077  0.077  0.000  0.000  0.000  0.000  0.000  0.430
 
band     3 # energy    5.02845675 # occ.  2.00000000
 
ion      s     py     pz     px    dxy    dyz    dz2    dxz  x2-y2    tot
    1  0.000  0.000  0.108  0.108  0.000  0.000  0.000  0.000  0.000  0.217
    2  0.000  0.000  0.108  0.108  0.000  0.000  0.000  0.000  0.000  0.217
tot    0.000  0.000  0.217  0.217  0.000  0.000  0.000  0.000  0.000  0.434
 
band     4 # energy    5.02845676 # occ.  2.00000000
 
ion      s     py     pz     px    dxy    dyz    dz2    dxz  x2-y2    tot
    1  0.000  0.145  0.036  0.036  0.000  0.000  0.000  0.000  0.000  0.217
    2  0.000  0.145  0.036  0.036  0.000  0.000  0.000  0.000  0.000  0.217
tot    0.000  0.289  0.072  0.072  0.000  0.000  0.000  0.000  0.000  0.434
 
band     5 # energy    7.81535495 # occ.  0.00000000
 
ion      s     py     pz     px    dxy    dyz    dz2    dxz  x2-y2    tot
    1  0.163  0.014  0.014  0.014  0.000  0.000  0.000  0.000  0.000  0.206
    2  0.163  0.014  0.014  0.014  0.000  0.000  0.000  0.000  0.000  0.206
tot    0.327  0.028  0.028  0.028  0.000  0.000  0.000  0.000  0.000  0.411
 
band     6 # energy    9.41132069 # occ.  0.00000000
 
ion      s     py     pz     px    dxy    dyz    dz2    dxz  x2-y2    tot
    1  0.000  0.000  0.066  0.066  0.000  0.000  0.000  0.000  0.000  0.132
    2  0.000  0.000  0.066  0.066  0.000  0.000  0.000  0.000  0.000  0.132
tot    0.000  0.000  0.132  0.132  0.000  0.000  0.000  0.000  0.000  0.264
 
band     7 # energy    9.41132069 # occ.  0.00000000
 
ion      s     py     pz     px    dxy    dyz    dz2    dxz  x2-y2    tot
    1  0.000  0.088  0.022  0.022  0.000  0.000  0.000  0.000  0.000  0.132
    2  0.000  0.088  0.022  0.022  0.000  0.000  0.000  0.000  0.000  0.132
tot    0.000  0.176  0.044  0.044  0.000  0.000  0.000  0.000  0.000  0.264
 
band     8 # energy   13.24241235 # occ.  0.00000000
 
ion      s     py     pz     px    dxy    dyz    dz2    dxz  x2-y2    tot
    1  0.083  0.054  0.054  0.054  0.000  0.000  0.000  0.000  0.000  0.244
    2  0.083  0.054  0.054  0.054  0.000  0.000  0.000  0.000  0.000  0.244
tot    0.167  0.107  0.107  0.107  0.000  0.000  0.000  0.000  0.000  0.489
 

 k-point     6 :    0.22222222 0.22222222 0.22222222     weight = 0.02500000

band     1 # energy   -5.45835649 # occ.  2.00000000
 
ion      s     py     pz     px    dxy    dyz    dz2    dxz  x2-y2    tot
    1  0.212  0.002  0.002  0.002  0.000  0.000  0.000  0.000  0.000  0.218
    2  0.212  0.002  0.002  0.002  0.000  0.000  0.000  0.000  0.000  0.218
tot    0.423  0.004  0.004  0.004  0.000  0.000  0.000  0.000  0.000  0.437
 
band     2 # energy    2.45242745 # occ.  2.00000000
 
ion      s     py     pz     px    dxy    dyz    dz2    dxz  x2-y2    tot
    1  0.090  0.043  0.043  0.043  0.000  0.000  0.000  0.000  0.000  0.218
    2  0.090  0.043  0.043  0.043  0.000  0.000  0.000  0.000  0.000  0.218
tot    0.179  0.086  0.086  0.086  0.000  0.000  0.000  0.000  0.000  0.436
 
band     3 # energy    5.21669220 # occ.  2.00000000
 
ion      s     py     pz     px    dxy    dyz    dz2    dxz  x2-y2    tot
    1  0.000  0.000  0.108  0.108  0.000  0.000  0.000  0.000  0.000  0.216
    2  0.000  0.000  0.108  0.108  0.000  0.000  0.000  0.000  0.000  0.216
tot    0.000  0.000  0.216  0.216  0.000  0.000  0.000  0.000  0.000  0.432
 
band     4 # energy    5.21669220 # occ.  2.00000000
 
ion      s     py     pz     px    dxy    dyz    dz2    dxz  x2-y2    tot
    1  0.000  0.144  0.036  0.036  0.000  0.000  0.000  0.000  0.000  0.216
    2  0.000  0.144  0.036  0.036  0.000  0.000  0.000  0.000  0.000  0.216
tot    0.000  0.288  0.072  0.072  0.000  0.000  0.000  0.000  0.000  0.432
 
band     5 # energy    8.01495383 # occ.  0.00000000
 
ion      s     py     pz     px    dxy    dyz    dz2    dxz  x2-y2    tot
    1  0.148  0.019  0.019  0.019  0.000  0.000  0.000  0.000  0.000  0.204
    2  0.148  0.019  0.019  0.019  0.000  0.000  0.000  0.000  0.000  0.204
tot    0.297  0.037  0.037  0.037  0.000  0.000  0.000  0.000  0.000  0.409
 
band     6 # energy    9.31817773 # occ.  0.00000000
 
ion      s     py     pz     px    dxy    dyz    dz2    dxz  x2-y2    tot
    1  0.000  0.000  0.074  0.074  0.000  0.000  0.000  0.000  0.000  0.148
    2  0.000  0.000  0.074  0.074  0.000  0.000  0.000  0.000  0.000  0.148
tot    0.000  0.000  0.148  0.148  0.000  0.000  0.000  0.000  0.000  0.295
 
band     7 # energy    9.31817773 # occ.  0.00000000
 
ion      s     py     pz     px    dxy    dyz    dz2    dxz  x2-y2    tot
    1  0.000  0.098  0.025  0.025  0.000  0.000  0.000  0.000  0.000  0.148
    2  0.000  0.098  0.025  0.025  0.000  0.000  0.000  0.000  0.000  0.148
tot    0.000  0.197  0.049  0.049  0.000  0.000  0.000  0.000  0.000  0.295
 
band     8 # energy   12.33642406 # occ.  0.00000000
 
ion      s     py     pz     px    dxy    dyz    dz2    dxz  x2-y2    tot
    1  0.133  0.048  0.048  0.048  0.000  0.000  0.000  0.000  0.000  0.276
    2  0.133  0.048  0.048  0.048  0.000  0.000  0.000  0.000  0.000  0.276
tot    0.267  0.095  0.095  0.095  0.000  0.000  0.000  0.000  0.000  0.552
 

 k-point     7 :    0.16666667 0.16666667 0.16666667     weight = 0.02500000

band     1 # energy   -5.73349705 # occ.  2.00000000
 
ion      s     py     pz     px    dxy    dyz    dz2    dxz  x2-y2    tot
    1  0.213  0.001  0.001  0.001  0.000  0.000  0.000  0.000  0.000  0.217
    2  0.213  0.001  0.001  0.001  0.000  0.000  0.000  0.000  0.000  0.217
tot    0.425  0.003  0.003  0.003  0.000  0.000  0.000  0.000  0.000  0.433
 
band     2 # energy    3.49571284 # occ.  2.00000000
 
ion      s     py     pz     px    dxy    dyz    dz2    dxz  x2-y2    tot
    1  0.076  0.048  0.048  0.048  0.000  0.000  0.000  0.000  0.000  0.221
    2  0.076  0.048  0.048  0.048  0.000  0.000  0.000  0.000  0.000  0.221
tot    0.152  0.097  0.097  0.097  0.000  0.000  0.000  0.000  0.000  0.442
 
band     3 # energy    5.43044509 # occ.  2.00000000
 
ion      s     py     pz     px    dxy    dyz    dz2    dxz  x2-y2    tot
    1  0.000  0.000  0.108  0.108  0.000  0.000  0.000  0.000  0.000  0.216
    2  0.000  0.000  0.108  0.108  0.000  0.000  0.000  0.000  0.000  0.216
tot    0.000  0.000  0.216  0.216  0.000  0.000  0.000  0.000  0.000  0.431
 
band     4 # energy    5.43044509 # occ.  2.00000000
 
ion      s     py     pz     px    dxy    dyz    dz2    dxz  x2-y2    tot
    1  0.000  0.144  0.036  0.036  0.000  0.000  0.000  0.000  0.000  0.216
    2  0.000  0.144  0.036  0.036  0.000  0.000  0.000  0.000  0.000  0.216
tot    0.000  0.288  0.072  0.072  0.000  0.000  0.000  0.000  0.000  0.431
 
band     5 # energy    8.23092008 # occ.  0.00000000
 
ion      s     py     pz     px    dxy    dyz    dz2    dxz  x2-y2    tot
    1  0.127  0.025  0.025  0.025  0.000  0.000  0.000  0.000  0.000  0.201
    2  0.127  0.025  0.025  0.025  0.000  0.000  0.000  0.000  0.000  0.201
tot    0.254  0.050  0.050  0.050  0.000  0.000  0.000  0.000  0.000  0.402
 
band     6 # energy    9.08701336 # occ.  0.00000000
 
ion      s     py     pz     px    dxy    dyz    dz2    dxz  x2-y2    tot
    1  0.000  0.000  0.078  0.078  0.000  0.000  0.000  0.000  0.000  0.156
    2  0.000  0.000  0.078  0.078  0.000  0.000  0.000  0.000  0.000  0.156
tot    0.000  0.000  0.156  0.156  0.000  0.000  0.000  0.000  0.000  0.312
 
band     7 # energy    9.08701336 # occ.  0.00000000
 
ion      s     py     pz     px    dxy    dyz    dz2    dxz  x2-y2    tot
    1  0.000  0.104  0.026  0.026  0.000  0.000  0.000  0.000  0.000  0.156
    2  0.000  0.104  0.026  0.026  0.000  0.000  0.000  0.000  0.000  0.156
tot    0.000  0.208  0.052  0.052  0.000  0.000  0.000  0.000  0.000  0.312
 
band     8 # energy   11.34379946 # occ.  0.00000000
 
ion      s     py     pz     px    dxy    dyz    dz2    dxz  x2-y2    tot
    1  0.172  0.039  0.039  0.039  0.000  0.000  0.000  0.000  0.000  0.291
    2  0.172  0.039  0.039  0.039  0.000  0.000  0.000  0.000  0.000  0.291
tot    0.345  0.079  0.079  0.079  0.000  0.000  0.000  0.000  0.000  0.582
 

 k-point     8 :    0.11111111 0.11111111 0.11111111     weight = 0.02500000

band     1 # energy   -5.93334531 # occ.  2.00000000
 
ion      s     py     pz     px    dxy    dyz    dz2    dxz  x2-y2    tot
    1  0.214  0.001  0.001  0.001  0.000  0.000  0.000  0.000  0.000  0.215
    2  0.214  0.001  0.001  0.001  0.000  0.000  0.000  0.000  0.000  0.215
tot    0.427  0.001  0.001  0.001  0.000  0.000  0.000  0.000  0.000  0.431
 
band     2 # energy    4.53630515 # occ.  2.00000000
 
ion      s     py     pz     px    dxy    dyz    dz2    dxz  x2-y2    tot
    1  0.056  0.056  0.056  0.056  0.000  0.000  0.000  0.000  0.000  0.223
    2  0.056  0.056  0.056  0.056  0.000  0.000  0.000  0.000  0.000  0.223
tot    0.111  0.112  0.112  0.112  0.000  0.000  0.000  0.000  0.000  0.446
 
band     3 # energy    5.64592376 # occ.  2.00000000
 
ion      s     py     pz     px    dxy    dyz    dz2    dxz  x2-y2    tot
    1  0.000  0.000  0.108  0.108  0.000  0.000  0.000  0.000  0.000  0.217
    2  0.000  0.000  0.108  0.108  0.000  0.000  0.000  0.000  0.000  0.217
tot    0.000  0.000  0.217  0.217  0.000  0.000  0.000  0.000  0.000  0.433
 
band     4 # energy    5.64592376 # occ.  2.00000000
 
ion      s     py     pz     px    dxy    dyz    dz2    dxz  x2-y2    tot
    1  0.000  0.144  0.036  0.036  0.000  0.000  0.000  0.000  0.000  0.217
    2  0.000  0.144  0.036  0.036  0.000  0.000  0.000  0.000  0.000  0.217
tot    0.000  0.289  0.072  0.072  0.000  0.000  0.000  0.000  0.000  0.433
 
band     5 # energy    8.42287523 # occ.  0.00000000
 
ion      s     py     pz     px    dxy    dyz    dz2    dxz  x2-y2    tot
    1  0.092  0.033  0.033  0.033  0.000  0.000  0.000  0.000  0.000  0.192
    2  0.092  0.033  0.033  0.033  0.000  0.000  0.000  0.000  0.000  0.192
tot    0.183  0.067  0.067  0.067  0.000  0.000  0.000  0.000  0.000  0.384
 
band     6 # energy    8.78795733 # occ.  0.00000000
 
ion      s     py     pz     px    dxy    dyz    dz2    dxz  x2-y2    tot
    1  0.000  0.000  0.078  0.078  0.000  0.000  0.000  0.000  0.000  0.157
    2  0.000  0.000  0.078  0.078  0.000  0.000  0.000  0.000  0.000  0.157
tot    0.000  0.000  0.157  0.157  0.000  0.000  0.000  0.000  0.000  0.314
 
band     7 # energy    8.78795733 # occ.  0.00000000
 
ion      s     py     pz     px    dxy    dyz    dz2    dxz  x2-y2    tot
    1  0.000  0.105  0.026  0.026  0.000  0.000  0.000  0.000  0.000  0.157
    2  0.000  0.105  0.026  0.026  0.000  0.000  0.000  0.000  0.000  0.157
tot    0.000  0.209  0.052  0.052  0.000  0.000  0.000  0.000  0.000  0.314
 
band     8 # energy   10.36297279 # occ.  0.00000000
 
ion      s     py     pz     px    dxy    dyz    dz2    dxz  x2-y2    tot
    1  0.224  0.029  0.029  0.029  0.000  0.000  0.000  0.000  0.000  0.309
    2  0.224  0.029  0.029  0.029  0.000  0.000  0.000  0.000  0.000  0.309
tot    0.447  0.057  0.057  0.057  0.000  0.000  0.000  0.000  0.000  0.619
 

 k-point     9 :    0.05555556 0.05555556 0.05555556     weight = 0.02500000

band     1 # energy   -6.05447255 # occ.  2.00000000
 
ion      s     py     pz     px    dxy    dyz    dz2    dxz  x2-y2    tot
    1  0.214  0.000  0.000  0.000  0.000  0.000  0.000  0.000  0.000  0.215
    2  0.214  0.000  0.000  0.000  0.000  0.000  0.000  0.000  0.000  0.215
tot    0.429  0.000  0.000  0.000  0.000  0.000  0.000  0.000  0.000  0.429
 
band     2 # energy    5.45214717 # occ.  2.00000000
 
ion      s     py     pz     px    dxy    dyz    dz2    dxz  x2-y2    tot
    1  0.025  0.066  0.066  0.066  0.000  0.000  0.000  0.000  0.000  0.221
    2  0.025  0.066  0.066  0.066  0.000  0.000  0.000  0.000  0.000  0.221
tot    0.049  0.131  0.131  0.131  0.000  0.000  0.000  0.000  0.000  0.443
 
band     3 # energy    5.81780295 # occ.  1.99999982
 
ion      s     py     pz     px    dxy    dyz    dz2    dxz  x2-y2    tot
    1  0.000  0.000  0.109  0.109  0.000  0.000  0.000  0.000  0.000  0.218
    2  0.000  0.000  0.109  0.109  0.000  0.000  0.000  0.000  0.000  0.218
tot    0.000  0.000  0.218  0.218  0.000  0.000  0.000  0.000  0.000  0.436
 
band     4 # energy    5.81780295 # occ.  1.99999982
 
ion      s     py     pz     px    dxy    dyz    dz2    dxz  x2-y2    tot
    1  0.000  0.145  0.036  0.036  0.000  0.000  0.000  0.000  0.000  0.218
    2  0.000  0.145  0.036  0.036  0.000  0.000  0.000  0.000  0.000  0.218
tot    0.000  0.291  0.073  0.073  0.000  0.000  0.000  0.000  0.000  0.436
 
band     5 # energy    8.50088473 # occ.  0.00000000
 
ion      s     py     pz     px    dxy    dyz    dz2    dxz  x2-y2    tot
    1  0.028  0.046  0.046  0.046  0.000  0.000  0.000  0.000  0.000  0.167
    2  0.028  0.046  0.046  0.046  0.000  0.000  0.000  0.000  0.000  0.167
tot    0.057  0.092  0.092  0.092  0.000  0.000  0.000  0.000  0.000  0.334
 
band     6 # energy    8.53528649 # occ.  0.00000000
 
ion      s     py     pz     px    dxy    dyz    dz2    dxz  x2-y2    tot
    1  0.000  0.000  0.077  0.077  0.000  0.000  0.000  0.000  0.000  0.155
    2  0.000  0.000  0.077  0.077  0.000  0.000  0.000  0.000  0.000  0.155
tot    0.000  0.000  0.155  0.155  0.000  0.000  0.000  0.000  0.000  0.310
 
band     7 # energy    8.53528650 # occ.  0.00000000
 
ion      s     py     pz     px    dxy    dyz    dz2    dxz  x2-y2    tot
    1  0.000  0.103  0.026  0.026  0.000  0.000  0.000  0.000  0.000  0.155
    2  0.000  0.103  0.026  0.026  0.000  0.000  0.000  0.000  0.000  0.155
tot    0.000  0.206  0.052  0.052  0.000  0.000  0.000  0.000  0.000  0.310
 
band     8 # energy    9.55443360 # occ.  0.00000000
 
ion      s     py     pz     px    dxy    dyz    dz2    dxz  x2-y2    tot
    1  0.311  0.011  0.011  0.011  0.000  0.000  0.000  0.000  0.000  0.343
    2  0.311  0.011  0.011  0.011  0.000  0.000  0.000  0.000  0.000  0.343
tot    0.621  0.021  0.021  0.021  0.000  0.000  0.000  0.000  0.000  0.686
 

 k-point    10 :    0.00000000 0.00000000 0.00000000     weight = 0.02500000

band     1 # energy   -6.09509472 # occ.  2.00000000
 
ion      s     py     pz     px    dxy    dyz    dz2    dxz  x2-y2    tot
    1  0.214  0.000  0.000  0.000  0.000  0.000  0.000  0.000  0.000  0.214
    2  0.214  0.000  0.000  0.000  0.000  0.000  0.000  0.000  0.000  0.214
tot    0.429  0.000  0.000  0.000  0.000  0.000  0.000  0.000  0.000  0.429
 
band     2 # energy    5.88521685 # occ.  1.99997982
 
ion      s     py     pz     px    dxy    dyz    dz2    dxz  x2-y2    tot
    1  0.000  0.073  0.073  0.073  0.000  0.000  0.000  0.000  0.000  0.219
    2  0.000  0.073  0.073  0.073  0.000  0.000  0.000  0.000  0.000  0.219
tot    0.000  0.146  0.146  0.146  0.000  0.000  0.000  0.000  0.000  0.438
 
band     3 # energy    5.88523341 # occ.  1.99997980
 
ion      s     py     pz     px    dxy    dyz    dz2    dxz  x2-y2    tot
    1  0.000  0.000  0.110  0.110  0.000  0.000  0.000  0.000  0.000  0.219
    2  0.000  0.000  0.110  0.110  0.000  0.000  0.000  0.000  0.000  0.219
tot    0.000  0.000  0.219  0.219  0.000  0.000  0.000  0.000  0.000  0.438
 
band     4 # energy    5.88523341 # occ.  1.99997980
 
ion      s     py     pz     px    dxy    dyz    dz2    dxz  x2-y2    tot
    1  0.000  0.146  0.037  0.037  0.000  0.000  0.000  0.000  0.000  0.219
    2  0.000  0.146  0.037  0.037  0.000  0.000  0.000  0.000  0.000  0.219
tot    0.000  0.292  0.073  0.073  0.000  0.000  0.000  0.000  0.000  0.438
 
band     5 # energy    8.43488244 # occ.  0.00000000
 
ion      s     py     pz     px    dxy    dyz    dz2    dxz  x2-y2    tot
    1  0.000  0.051  0.051  0.051  0.000  0.000  0.000  0.000  0.000  0.153
    2  0.000  0.051  0.051  0.051  0.000  0.000  0.000  0.000  0.000  0.153
tot    0.000  0.102  0.102  0.102  0.000  0.000  0.000  0.000  0.000  0.307
 
band     6 # energy    8.43489961 # occ.  0.00000000
 
ion      s     py     pz     px    dxy    dyz    dz2    dxz  x2-y2    tot
    1  0.000  0.000  0.077  0.077  0.000  0.000  0.000  0.000  0.000  0.153
    2  0.000  0.000  0.077  0.077  0.000  0.000  0.000  0.000  0.000  0.153
tot    0.000  0.000  0.153  0.153  0.000  0.000  0.000  0.000  0.000  0.307
 
band     7 # energy    8.43489961 # occ.  0.00000000
 
ion      s     py     pz     px    dxy    dyz    dz2    dxz  x2-y2    tot
    1  0.000  0.102  0.026  0.026  0.000  0.000  0.000  0.000  0.000  0.153
    2  0.000  0.102  0.026  0.026  0.000  0.000  0.000  0.000  0.000  0.153
tot    0.000  0.204  0.051  0.051  0.000  0.000  0.000  0.000  0.000  0.307
 
band     8 # energy    9.25557606 # occ.  0.00000000
 
ion      s     py     pz     px    dxy    dyz    dz2    dxz  x2-y2    tot
    1  0.361  0.000  0.000  0.000  0.000  0.000  0.000  0.000  0.000  0.361
    2  0.361  0.000  0.000  0.000  0.000  0.000  0.000  0.000  0.000  0.361
tot    0.721  0.000  0.000  0.000  0.000  0.000  0.000  0.000  0.000  0.721
 

 k-point    11 :    0.00000000 0.00000000 0.00000000     weight = 0.02500000

band     1 # energy   -6.09509472 # occ.  2.00000000
 
ion      s     py     pz     px    dxy    dyz    dz2    dxz  x2-y2    tot
    1  0.214  0.000  0.000  0.000  0.000  0.000  0.000  0.000  0.000  0.214
    2  0.214  0.000  0.000  0.000  0.000  0.000  0.000  0.000  0.000  0.214