<?xml version="1.0" encoding="ISO-8859-1"?>
<modeling>
 <generator>
  <i name="program" type="string">vasp </i>
  <i name="version" type="string">5.4.4.18Apr17-6-g9f103f2a35  </i>
  <i name="subversion" type="string">(build Apr 19 2022 13:31:49) complex            parallel </i>
  <i name="platform" type="string">LinuxIFC </i>
  <i name="date" type="string">2023 12 25 </i>
  <i name="time" type="string">02:58:13 </i>
 </generator>
 <incar>
  <i type="string" name="SYSTEM"> fcc Si</i>
  <i type="string" name="PREC">normal</i>
  <i type="int" name="ICHARG">    11</i>
  <i type="int" name="NBANDS">     8</i>
  <i type="int" name="ISMEAR">     0</i>
  <i name="SIGMA">      0.10000000</i>
  <i type="int" name="LORBIT">    11</i>
  <v type="int" name="KPOINT_BSE">    -1     0     0     0</v>
 </incar>
 <structure name="primitive_cell" >
  <crystal>
   <varray name="basis" >
    <v>       2.71500000       2.71500000       0.00000000 </v>
    <v>       0.00000000       2.71500000       2.71500000 </v>
    <v>       2.71500000       0.00000000       2.71500000 </v>
   </varray>
   <i name="volume">     40.02575175 </i>
   <varray name="rec_basis" >
    <v>       0.18416206       0.18416206      -0.18416206 </v>
    <v>      -0.18416206       0.18416206       0.18416206 </v>
    <v>       0.18416206      -0.18416206       0.18416206 </v>
   </varray>
  </crystal>
  <varray name="positions" >
   <v>       0.00000000       0.00000000       0.00000000 </v>
   <v>       0.25000000       0.25000000       0.25000000 </v>
  </varray>
 </structure>
 <varray name="primitive_index" >
  <v type="int" >        1 </v>
  <v type="int" >        2 </v>
 </varray>
 <kpoints>
  <generation param="listgenerated">
   <i name="divisions" type="int">      10 </i>
   <v>       0.50000000       0.50000000       0.50000000 </v>
   <v>       0.00000000       0.00000000       0.00000000 </v>
   <v>       0.00000000       0.50000000       0.50000000 </v>
   <v>       0.37500000       0.75000000       0.37500000 </v>
   <v>       0.00000000       0.00000000       0.00000000 </v>
  </generation>
  <varray name="kpointlist" >
   <v>       0.50000000       0.50000000       0.50000000 </v>
   <v>       0.44444444       0.44444444       0.44444444 </v>
   <v>       0.38888889       0.38888889       0.38888889 </v>
   <v>       0.33333333       0.33333333       0.33333333 </v>
   <v>       0.27777778       0.27777778       0.27777778 </v>
   <v>       0.22222222       0.22222222       0.22222222 </v>
   <v>       0.16666667       0.16666667       0.16666667 </v>
   <v>       0.11111111       0.11111111       0.11111111 </v>
   <v>       0.05555556       0.05555556       0.05555556 </v>
   <v>       0.00000000       0.00000000       0.00000000 </v>
   <v>       0.00000000       0.00000000       0.00000000 </v>
   <v>       0.00000000       0.05555556       0.05555556 </v>
   <v>       0.00000000       0.11111111       0.11111111 </v>
   <v>       0.00000000       0.16666667       0.16666667 </v>
   <v>       0.00000000       0.22222222       0.22222222 </v>
   <v>       0.00000000       0.27777778       0.27777778 </v>
   <v>       0.00000000       0.33333333       0.33333333 </v>
   <v>       0.00000000       0.38888889       0.38888889 </v>
   <v>       0.00000000       0.44444444       0.44444444 </v>
   <v>       0.00000000       0.50000000       0.50000000 </v>
   <v>       0.00000000       0.50000000       0.50000000 </v>
   <v>       0.02777778       0.51388889       0.51388889 </v>
   <v>       0.05555556       0.52777778       0.52777778 </v>
   <v>       0.08333333       0.54166667       0.54166667 </v>
   <v>       0.11111111       0.55555556       0.55555556 </v>
   <v>       0.13888889       0.56944444       0.56944444 </v>
   <v>       0.16666667       0.58333333       0.58333333 </v>
   <v>       0.19444444       0.59722222       0.59722222 </v>
   <v>       0.22222222       0.61111111       0.61111111 </v>
   <v>       0.25000000       0.62500000       0.62500000 </v>
   <v>       0.37500000       0.75000000       0.37500000 </v>
   <v>       0.33333333       0.66666667       0.33333333 </v>
   <v>       0.29166667       0.58333333       0.29166667 </v>
   <v>       0.25000000       0.50000000       0.25000000 </v>
   <v>       0.20833333       0.41666667       0.20833333 </v>
   <v>       0.16666667       0.33333333       0.16666667 </v>
   <v>       0.12500000       0.25000000       0.12500000 </v>
   <v>       0.08333333       0.16666667       0.08333333 </v>
   <v>       0.04166667       0.08333333       0.04166667 </v>
   <v>       0.00000000       0.00000000       0.00000000 </v>
  </varray>
  <varray name="weights" >
   <v>       0.02500000 </v>
   <v>       0.02500000 </v>
   <v>       0.02500000 </v>
   <v>       0.02500000 </v>
   <v>       0.02500000 </v>
   <v>       0.02500000 </v>
   <v>       0.02500000 </v>
   <v>       0.02500000 </v>
   <v>       0.02500000 </v>
   <v>       0.02500000 </v>
   <v>       0.02500000 </v>
   <v>       0.02500000 </v>
   <v>       0.02500000 </v>
   <v>       0.02500000 </v>
   <v>       0.02500000 </v>
   <v>       0.02500000 </v>
   <v>       0.02500000 </v>
   <v>       0.02500000 </v>
   <v>       0.02500000 </v>
   <v>       0.02500000 </v>
   <v>       0.02500000 </v>
   <v>       0.02500000 </v>
   <v>       0.02500000 </v>
   <v>       0.02500000 </v>
   <v>       0.02500000 </v>
   <v>       0.02500000 </v>
   <v>       0.02500000 </v>
   <v>       0.02500000 </v>
   <v>       0.02500000 </v>
   <v>       0.02500000 </v>
   <v>       0.02500000 </v>
   <v>       0.02500000 </v>
   <v>       0.02500000 </v>
   <v>       0.02500000 </v>
   <v>       0.02500000 </v>
   <v>       0.02500000 </v>
   <v>       0.02500000 </v>
   <v>       0.02500000 </v>
   <v>       0.02500000 </v>
   <v>       0.02500000 </v>
  </varray>
 </kpoints>
 <parameters>
  <separator name="general" >
   <i type="string" name="SYSTEM">fcc Si</i>
   <i type="logical" name="LCOMPAT"> F  </i>
  </separator>
  <separator name="electronic" >
   <i type="string" name="PREC">normal</i>
   <i name="ENMAX">    245.34500000</i>
   <i name="ENAUG">    322.06900000</i>
   <i name="EDIFF">      0.00010000</i>
   <i type="int" name="IALGO">    38</i>
   <i type="int" name="IWAVPR">    10</i>
   <i type="int" name="NBANDS">     8</i>
   <i name="NELECT">      8.00000000</i>
   <i type="int" name="TURBO">     0</i>
   <i type="int" name="IRESTART">     0</i>
   <i type="int" name="NREBOOT">     0</i>
   <i type="int" name="NMIN">     0</i>
   <i name="EREF">      0.00000000</i>
   <separator name="electronic smearing" >
    <i type="int" name="ISMEAR">     0</i>
    <i name="SIGMA">      0.10000000</i>
    <i name="KSPACING">      0.50000000</i>
    <i type="logical" name="KGAMMA"> T  </i>
   </separator>
   <separator name="electronic projectors" >
    <i type="logical" name="LREAL"> F  </i>
    <v name="ROPT">      0.00000000</v>
    <i type="int" name="LMAXPAW">  -100</i>
    <i type="int" name="LMAXMIX">     2</i>
    <i type="logical" name="NLSPLINE"> F  </i>
   </separator>
   <separator name="electronic startup" >
    <i type="int" name="ISTART">     1</i>
    <i type="int" name="ICHARG">    11</i>
    <i type="int" name="INIWAV">     1</i>
   </separator>
   <separator name="electronic spin" >
    <i type="int" name="ISPIN">     1</i>
    <i type="logical" name="LNONCOLLINEAR"> F  </i>
    <v name="MAGMOM">      1.00000000      1.00000000</v>
    <i name="NUPDOWN">     -1.00000000</i>
    <i type="logical" name="LSORBIT"> F  </i>
    <v name="SAXIS">      0.00000000      0.00000000      1.00000000</v>
    <i type="logical" name="LSPIRAL"> F  </i>
    <v name="QSPIRAL">      0.00000000      0.00000000      0.00000000</v>
    <i type="logical" name="LZEROZ"> F  </i>
   </separator>
   <separator name="electronic exchange-correlation" >
    <i type="logical" name="LASPH"> F  </i>
    <i type="logical" name="LMETAGGA"> F  </i>
   </separator>
   <separator name="electronic convergence" >
    <i type="int" name="NELM">    60</i>
    <i type="int" name="NELMDL">     0</i>
    <i type="int" name="NELMIN">     2</i>
    <i name="ENINI">    245.34500000</i>
    <separator name="electronic convergence detail" >
     <i type="logical" name="LDIAG"> T  </i>
     <i type="logical" name="LSUBROT"> F  </i>
     <i name="WEIMIN">      0.00000000</i>
     <i name="EBREAK">      0.00000313</i>
     <i name="DEPER">      0.30000000</i>
     <i type="int" name="NRMM">     4</i>
     <i name="TIME">      0.40000000</i>
    </separator>
   </separator>
   <separator name="electronic mixer" >
    <i name="AMIX">      0.40000000</i>
    <i name="BMIX">      1.00000000</i>
    <i name="AMIN">      0.10000000</i>
    <i name="AMIX_MAG">      1.60000000</i>
    <i name="BMIX_MAG">      1.00000000</i>
    <separator name="electronic mixer details" >
     <i type="int" name="IMIX">     4</i>
     <i type="logical" name="MIXFIRST"> F  </i>
     <i type="int" name="MAXMIX">   -45</i>
     <i name="WC">    100.00000000</i>
     <i type="int" name="INIMIX">     1</i>
     <i type="int" name="MIXPRE">     1</i>
     <i type="int" name="MREMOVE">     5</i>
    </separator>
   </separator>
   <separator name="electronic dipolcorrection" >
    <i type="logical" name="LDIPOL"> F  </i>
    <i type="logical" name="LMONO"> F  </i>
    <i type="int" name="IDIPOL">     0</i>
    <i name="EPSILON">      1.00000000</i>
    <v name="DIPOL">   -100.00000000   -100.00000000   -100.00000000</v>
    <i name="EFIELD">      0.00000000</i>
   </separator>
  </separator>
  <separator name="grids" >
   <i type="int" name="NGX">    16</i>
   <i type="int" name="NGY">    16</i>
   <i type="int" name="NGZ">    16</i>
   <i type="int" name="NGXF">    32</i>
   <i type="int" name="NGYF">    32</i>
   <i type="int" name="NGZF">    32</i>
   <i type="logical" name="ADDGRID"> F  </i>
  </separator>
  <separator name="ionic" >
   <i type="int" name="NSW">     0</i>
   <i type="int" name="IBRION">    -1</i>
   <i type="int" name="MDALGO">     0</i>
   <i type="int" name="ISIF">     2</i>
   <i name="PSTRESS">      0.00000000</i>
   <i name="EDIFFG">      0.00100000</i>
   <i type="int" name="NFREE">     0</i>
   <i name="POTIM">      0.50000000</i>
   <i name="SMASS">     -3.00000000</i>
   <i name="SCALEE">      1.00000000</i>
  </separator>
  <separator name="ionic md" >
   <i name="TEBEG">      0.00010000</i>
   <i name="TEEND">      0.00010000</i>
   <i type="int" name="NBLOCK">     1</i>
   <i type="int" name="KBLOCK">     1</i>
   <i type="int" name="NPACO">   256</i>
   <i name="APACO">     16.00000000</i>
  </separator>
  <separator name="symmetry" >
   <i type="int" name="ISYM">     2</i>
   <i name="SYMPREC">      0.00001000</i>
  </separator>
  <separator name="dos" >
   <i type="int" name="LORBIT">    11</i>
   <v name="RWIGS">     -1.00000000</v>
   <i type="int" name="NEDOS">   301</i>
   <i name="EMIN">     10.00000000</i>
   <i name="EMAX">    -10.00000000</i>
   <i name="EFERMI">      0.00000000</i>
  </separator>
  <separator name="writing" >
   <i type="int" name="NWRITE">     2</i>
   <i type="logical" name="LWAVE"> T  </i>
   <i type="logical" name="LDOWNSAMPLE"> F  </i>
   <i type="logical" name="LCHARG"> T  </i>
   <i type="logical" name="LPARD"> F  </i>
   <i type="logical" name="LVTOT"> F  </i>
   <i type="logical" name="LVHAR"> F  </i>
   <i type="logical" name="LELF"> F  </i>
   <i type="logical" name="LOPTICS"> F  </i>
   <v name="STM">      0.00000000      0.00000000      0.00000000      0.00000000      0.00000000      0.00000000      0.00000000</v>
  </separator>
  <separator name="performance" >
   <i type="int" name="NPAR">     4</i>
   <i type="int" name="NSIM">     4</i>
   <i type="int" name="NBLK">    -1</i>
   <i type="logical" name="LPLANE"> T  </i>
   <i type="logical" name="LSCALAPACK"> T  </i>
   <i type="logical" name="LSCAAWARE"> F  </i>
   <i type="logical" name="LSCALU"> F  </i>
   <i type="logical" name="LASYNC"> F  </i>
   <i type="logical" name="LORBITALREAL"> F  </i>
  </separator>
  <separator name="miscellaneous" >
   <i type="int" name="IDIOT">     3</i>
   <i type="int" name="ISPECIAL">     0</i>
   <i type="logical" name="LMUSIC"> F  </i>
   <v name="POMASS">     28.08500000</v>
   <v name="DARWINR">      0.00000000</v>
   <v name="DARWINV">      1.00000000</v>
   <i type="logical" name="LCORR"> T  </i>
  </separator>
  <i type="logical" name="GGA_COMPAT"> T  </i>
  <i type="logical" name="LBERRY"> F  </i>
  <i type="int" name="ICORELEVEL">     0</i>
  <i type="logical" name="LDAU"> F  </i>
  <i type="int" name="I_CONSTRAINED_M">     0</i>
  <separator name="electronic exchange-correlation" >
   <i type="string" name="GGA">--</i>
   <i type="int" name="VOSKOWN">     0</i>
   <i type="logical" name="LHFCALC"> F  </i>
   <i type="string" name="PRECFOCK"></i>
   <i type="logical" name="LSYMGRAD"> F  </i>
   <i type="logical" name="LHFONE"> F  </i>
   <i type="logical" name="LRHFCALC"> F  </i>
   <i type="logical" name="LTHOMAS"> F  </i>
   <i type="logical" name="LMODELHF"> F  </i>
   <i name="ENCUT4O">     -1.00000000</i>
   <i type="int" name="EXXOEP">     0</i>
   <i type="int" name="FOURORBIT">     0</i>
   <i name="AEXX">      0.00000000</i>
   <i name="HFALPHA">      0.00000000</i>
   <i name="MCALPHA">      0.00000000</i>
   <i name="ALDAX">      1.00000000</i>
   <i name="AGGAX">      1.00000000</i>
   <i name="ALDAC">      1.00000000</i>
   <i name="AGGAC">      1.00000000</i>
   <i type="int" name="NKREDX">     1</i>
   <i type="int" name="NKREDY">     1</i>
   <i type="int" name="NKREDZ">     1</i>
   <i type="logical" name="SHIFTRED"> F  </i>
   <i type="logical" name="ODDONLY"> F  </i>
   <i type="logical" name="EVENONLY"> F  </i>
   <i type="int" name="LMAXFOCK">     0</i>
   <i type="int" name="NMAXFOCKAE">     0</i>
   <i type="logical" name="LFOCKAEDFT"> F  </i>
   <i name="HFSCREEN">      0.00000000</i>
   <i name="HFSCREENC">      0.00000000</i>
   <i type="int" name="NBANDSGWLOW">     0</i>
  </separator>
  <separator name="vdW DFT" >
   <i type="logical" name="LUSE_VDW"> F  </i>
   <i name="Zab_VDW">     -0.84910000</i>
   <i name="PARAM1">      0.12340000</i>
   <i name="PARAM2">      1.00000000</i>
   <i name="PARAM3">      0.00000000</i>
  </separator>
  <separator name="model GW" >
   <i type="int" name="MODEL_GW">     0</i>
   <i name="MODEL_EPS0">     12.00772552</i>
   <i name="MODEL_ALPHA">      1.00000000</i>
  </separator>
  <separator name="linear response parameters" >
   <i type="logical" name="LEPSILON"> F  </i>
   <i type="logical" name="LRPA"> F  </i>
   <i type="logical" name="LNABLA"> F  </i>
   <i type="logical" name="LVEL"> F  </i>
   <i type="int" name="KINTER">     0</i>
   <i name="CSHIFT">      0.10000000</i>
   <i name="OMEGAMAX">     -1.00000000</i>
   <i name="DEG_THRESHOLD">      0.00200000</i>
   <i name="RTIME">     -0.10000000</i>
   <i name="WPLASMAI">      0.00000000</i>
   <v name="DFIELD">      0.00000000      0.00000000      0.00000000</v>
   <v name="WPLASMA">      0.00000000      0.00000000      0.00000000      0.00000000      0.00000000      0.00000000      0.00000000      0.00000000      0.00000000</v>
  </separator>
  <separator name="orbital magnetization" >
   <i type="logical" name="NUCIND"> F  </i>
   <v name="MAGPOS">      0.00000000      0.00000000      0.00000000</v>
   <i type="logical" name="LNICSALL"> T  </i>
   <i type="logical" name="ORBITALMAG"> F  </i>
   <i type="logical" name="LMAGBLOCH"> F  </i>
   <i type="logical" name="LCHIMAG"> F  </i>
   <i type="logical" name="LGAUGE"> T  </i>
   <i type="int" name="MAGATOM">     0</i>
   <v name="MAGDIPOL">      0.00000000      0.00000000      0.00000000</v>
   <v name="AVECCONST">      0.00000000      0.00000000      0.00000000</v>
  </separator>
  <separator name="response functions" >
   <i type="logical" name="LADDER"> F  </i>
   <i type="logical" name="LRPAFORCE"> F  </i>
   <i type="logical" name="LFXC"> F  </i>
   <i type="logical" name="LHARTREE"> T  </i>
   <i type="int" name="IBSE">     0</i>
   <v type="int" name="KPOINT">    -1     0     0     0</v>
   <i type="logical" name="LTCTE"> F  </i>
   <i type="logical" name="LTETE"> F  </i>
   <i type="logical" name="LTRIPLET"> F  </i>
   <i type="logical" name="LFXCEPS"> F  </i>
   <i type="logical" name="LFXHEG"> F  </i>
   <i type="int" name="NATURALO">     2</i>
   <i type="logical" name="L2ORDER"> F  </i>
   <i type="logical" name="LMP2LT"> F  </i>
   <i type="logical" name="LUSEW"> F  </i>
   <i name="ENCUTGW">     -2.00000000</i>
   <i name="ENCUTGWSOFT">     -2.00000000</i>
   <i name="ENCUTLF">     -1.00000000</i>
   <i type="int" name="LMAXMP2">    -1</i>
   <i name="SCISSOR">      0.00000000</i>
   <i type="int" name="NOMEGA">     0</i>
   <i type="int" name="NOMEGAR">     0</i>
   <i type="int" name="NBANDSGW">    -1</i>
   <i type="int" name="NBANDSO">    -1</i>
   <i type="int" name="NBANDSV">    -1</i>
   <i type="int" name="NELM">     1</i>
   <i type="int" name="NELMHF">     1</i>
   <i type="int" name="DIM">     3</i>
   <i type="int" name="ANTIRES">     0</i>
   <i name="OMEGAMAX">    -30.00000000</i>
   <i name="OMEGAMIN">    -30.00000000</i>
   <i name="OMEGATL">   -200.00000000</i>
   <i type="int" name="OMEGAGRID">   140</i>
   <i name="CSHIFT">     -0.10000000</i>
   <i type="logical" name="SELFENERGY"> F  </i>
   <i type="logical" name="LSPECTRAL"> F  </i>
   <i type="logical" name="LSPECTRALGW"> F  </i>
   <i type="logical" name="LSINGLES"> F  </i>
   <i type="logical" name="LFERMIGW"> F  </i>
   <i type="logical" name="ODDONLYGW"> F  </i>
   <i type="logical" name="EVENONLYGW"> F  </i>
   <i type="int" name="NKREDLFX">     1</i>
   <i type="int" name="NKREDLFY">     1</i>
   <i type="int" name="NKREDLFZ">     1</i>
   <i type="int" name="MAXMEM">  2800</i>
   <i type="int" name="TELESCOPE">     0</i>
   <i type="int" name="TAUPAR">     1</i>
   <i type="int" name="OMEGAPAR">    -1</i>
   <i name="LAMBDA">      1.00000000</i>
  </separator>
  <separator name="External order field" >
   <i name="OFIELD_KAPPA">      0.00000000</i>
   <v name="OFIELD_K">      0.00000000      0.00000000      0.00000000</v>
   <i name="OFIELD_Q6_NEAR">      0.00000000</i>
   <i name="OFIELD_Q6_FAR">      0.00000000</i>
   <i name="OFIELD_A">      0.00000000</i>
  </separator>
 </parameters>
 <atominfo>
  <atoms>       2 </atoms>
  <types>       1 </types>
  <array name="atoms" >
   <dimension dim="1">ion</dimension>
   <field type="string">element</field>
   <field type="int">atomtype</field>
   <set>
    <rc><c>Si</c><c>   1</c></rc>
    <rc><c>Si</c><c>   1</c></rc>
   </set>
  </array>
  <array name="atomtypes" >
   <dimension dim="1">type</dimension>
   <field type="int">atomspertype</field>
   <field type="string">element</field>
   <field>mass</field>
   <field>valence</field>
   <field type="string">pseudopotential</field>
   <set>
    <rc><c>   2</c><c>Si</c><c>     28.08500000</c><c>      4.00000000</c><c> PAW_PBE Si 05Jan2001                   </c></rc>
   </set>
  </array>
 </atominfo>
 <structure name="initialpos" >
  <crystal>
   <varray name="basis" >
    <v>       2.71500000       2.71500000       0.00000000 </v>
    <v>       0.00000000       2.71500000       2.71500000 </v>
    <v>       2.71500000       0.00000000       2.71500000 </v>
   </varray>
   <i name="volume">     40.02575175 </i>
   <varray name="rec_basis" >
    <v>       0.18416206       0.18416206      -0.18416206 </v>
    <v>      -0.18416206       0.18416206       0.18416206 </v>
    <v>       0.18416206      -0.18416206       0.18416206 </v>
   </varray>
  </crystal>
  <varray name="positions" >
   <v>       0.00000000       0.00000000       0.00000000 </v>
   <v>       0.25000000       0.25000000       0.25000000 </v>
  </varray>
 </structure>
 <calculation>
  <scstep>
   <time name="dav">    0.04    0.04</time>
   <time name="total">    0.05    0.06</time>
   <energy>
    <i name="alphaZ">      3.36414203 </i>
    <i name="ewald">   -228.56352493 </i>
    <i name="hartreedc">    -15.23357982 </i>
    <i name="XCdc">    -17.91352029 </i>
    <i name="pawpsdc">     75.26182406 </i>
    <i name="pawaedc">    -40.31544095 </i>
    <i name="eentropy">     -0.00000282 </i>
    <i name="bandstr">     10.46181049 </i>
    <i name="atom">    206.12257231 </i>
    <i name="e_fr_energy">     -6.81571992 </i>
    <i name="e_wo_entrp">     -6.81571710 </i>
    <i name="e_0_energy">     -6.81571851 </i>
   </energy>
  </scstep>
  <scstep>
   <time name="dav">    0.04    0.04</time>
   <time name="total">    0.04    0.04</time>
   <energy>
    <i name="alphaZ">      3.36414203 </i>
    <i name="ewald">   -228.56352493 </i>
    <i name="hartreedc">    -15.23357982 </i>
    <i name="XCdc">    -17.91352029 </i>
    <i name="pawpsdc">     75.26182406 </i>
    <i name="pawaedc">    -40.31544095 </i>
    <i name="eentropy">     -0.00000282 </i>
    <i name="bandstr">     10.46181049 </i>
    <i name="atom">    206.12257231 </i>
    <i name="e_fr_energy">     -6.81571992 </i>
    <i name="e_wo_entrp">     -6.81571710 </i>
    <i name="e_0_energy">     -6.81571851 </i>
   </energy>
  </scstep>
  <structure>
   <crystal>
    <varray name="basis" >
     <v>       2.71500000       2.71500000       0.00000000 </v>
     <v>       0.00000000       2.71500000       2.71500000 </v>
     <v>       2.71500000       0.00000000       2.71500000 </v>
    </varray>
    <i name="volume">     40.02575175 </i>
    <varray name="rec_basis" >
     <v>       0.18416206       0.18416206      -0.18416206 </v>
     <v>      -0.18416206       0.18416206       0.18416206 </v>
     <v>       0.18416206      -0.18416206       0.18416206 </v>
    </varray>
   </crystal>
   <varray name="positions" >
    <v>       0.00000000       0.00000000       0.00000000 </v>
    <v>       0.25000000       0.25000000       0.25000000 </v>
   </varray>
  </structure>
  <varray name="forces" >
   <v>       0.00000000       0.00000000       0.00000000 </v>
   <v>      -0.00000000      -0.00000000      -0.00000000 </v>
  </varray>
  <varray name="stress" >
   <v>     171.99712310       0.00000000       0.00000000 </v>
   <v>       0.00000000     171.99712310      -0.00000000 </v>
   <v>      -0.00000000       0.00000000     171.99712310 </v>
  </varray>
  <energy>
   <i name="e_fr_energy">     -6.81571992 </i>
   <i name="e_wo_entrp">     -6.81571851 </i>
   <i name="e_0_energy">     -0.00000282 </i>
  </energy>
  <time name="totalsc">    0.20    0.21</time>
  <eigenvalues>
   <array>
    <dimension dim="1">band</dimension>
    <dimension dim="2">kpoint</dimension>
    <dimension dim="3">spin</dimension>
    <field>eigene</field>
    <field>occ</field>
    <set>
     <set comment="spin 1">
      <set comment="kpoint 1">
       <r>   -3.7591    1.0000 </r>
       <r>   -1.1035    1.0000 </r>
       <r>    4.6781    1.0000 </r>
       <r>    4.6781    1.0000 </r>
       <r>    7.4217    0.0000 </r>
       <r>    9.2180    0.0000 </r>
       <r>    9.2180    0.0000 </r>
       <r>   13.5992    0.0000 </r>
      </set>
      <set comment="kpoint 2">
       <r>   -3.9233    1.0000 </r>
       <r>   -0.8636    1.0000 </r>
       <r>    4.6996    1.0000 </r>
       <r>    4.6996    1.0000 </r>
       <r>    7.4468    0.0000 </r>
       <r>    9.2424    0.0000 </r>
       <r>    9.2424    0.0000 </r>
       <r>   13.6376    0.0000 </r>
      </set>
      <set comment="kpoint 3">
       <r>   -4.2945    1.0000 </r>
       <r>   -0.2641    1.0000 </r>
       <r>    4.7663    1.0000 </r>
       <r>    4.7663    1.0000 </r>
       <r>    7.5237    0.0000 </r>
       <r>    9.3087    0.0000 </r>
       <r>    9.3087    0.0000 </r>
       <r>   13.7328    0.0000 </r>
      </set>
      <set comment="kpoint 4">
       <r>   -4.7165    1.0000 </r>
       <r>    0.5363    1.0000 </r>
       <r>    4.8766    1.0000 </r>
       <r>    4.8766    1.0000 </r>
       <r>    7.6475    0.0000 </r>
       <r>    9.3847    0.0000 </r>
       <r>    9.3847    0.0000 </r>
       <r>   13.7470    0.0000 </r>
      </set>
      <set comment="kpoint 5">
       <r>   -5.1147    1.0000 </r>
       <r>    1.4553    1.0000 </r>
       <r>    5.0285    1.0000 </r>
       <r>    5.0285    1.0000 </r>
       <r>    7.8154    0.0000 </r>
       <r>    9.4113    0.0000 </r>
       <r>    9.4113    0.0000 </r>
       <r>   13.2424    0.0000 </r>
      </set>
      <set comment="kpoint 6">
       <r>   -5.4584    1.0000 </r>
       <r>    2.4524    1.0000 </r>
       <r>    5.2167    1.0000 </r>
       <r>    5.2167    1.0000 </r>
       <r>    8.0150    0.0000 </r>
       <r>    9.3182    0.0000 </r>
       <r>    9.3182    0.0000 </r>
       <r>   12.3364    0.0000 </r>
      </set>
      <set comment="kpoint 7">
       <r>   -5.7335    1.0000 </r>
       <r>    3.4957    1.0000 </r>
       <r>    5.4304    1.0000 </r>
       <r>    5.4304    1.0000 </r>
       <r>    8.2309    0.0000 </r>
       <r>    9.0870    0.0000 </r>
       <r>    9.0870    0.0000 </r>
       <r>   11.3438    0.0000 </r>
      </set>
      <set comment="kpoint 8">
       <r>   -5.9333    1.0000 </r>
       <r>    4.5363    1.0000 </r>
       <r>    5.6459    1.0000 </r>
       <r>    5.6459    1.0000 </r>
       <r>    8.4229    0.0000 </r>
       <r>    8.7880    0.0000 </r>
       <r>    8.7880    0.0000 </r>
       <r>   10.3630    0.0000 </r>
      </set>
      <set comment="kpoint 9">
       <r>   -6.0545    1.0000 </r>
       <r>    5.4521    1.0000 </r>
       <r>    5.8178    1.0000 </r>
       <r>    5.8178    1.0000 </r>
       <r>    8.5009    0.0000 </r>
       <r>    8.5353    0.0000 </r>
       <r>    8.5353    0.0000 </r>
       <r>    9.5544    0.0000 </r>
      </set>
      <set comment="kpoint 10">
       <r>   -6.0951    1.0000 </r>
       <r>    5.8852    1.0000 </r>
       <r>    5.8852    1.0000 </r>
       <r>    5.8852    1.0000 </r>
       <r>    8.4349    0.0000 </r>
       <r>    8.4349    0.0000 </r>
       <r>    8.4349    0.0000 </r>
       <r>    9.2556    0.0000 </r>
      </set>
      <set comment="kpoint 11">
       <r>   -6.0951    1.0000 </r>
       <r>    5.8852    1.0000 </r>
       <r>    5.8852    1.0000 </r>
       <r>    5.8852    1.0000 </r>
       <r>    8.4349    0.0000 </r>
       <r>    8.4349    0.0000 </r>
       <r>    8.4349    0.0000 </r>
       <r>    9.2556    0.0000 </r>
      </set>
      <set comment="kpoint 12">
       <r>   -6.0409    1.0000 </r>
       <r>    5.5462    1.0000 </r>
       <r>    5.6707    1.0000 </r>
       <r>    5.6707    1.0000 </r>
       <r>    8.3062    0.0000 </r>
       <r>    8.7176    0.0000 </r>
       <r>    8.7176    0.0000 </r>
       <r>    9.5820    0.0000 </r>
      </set>
      <set comment="kpoint 13">
       <r>   -5.8790    1.0000 </r>
       <r>    4.7741    1.0000 </r>
       <r>    5.2017    1.0000 </r>
       <r>    5.2017    1.0000 </r>
       <r>    7.9816    0.0000 </r>
       <r>    9.3853    0.0000 </r>
       <r>    9.3853    0.0000 </r>
       <r>   10.1885    0.0000 </r>
      </set>
      <set comment="kpoint 14">
       <r>   -5.6105    1.0000 </r>
       <r>    3.8447    1.0000 </r>
       <r>    4.6821    1.0000 </r>
       <r>    4.6821    1.0000 </r>
       <r>    7.5764    0.0000 </r>
       <r>   10.1868    0.0000 </r>
       <r>   10.2302    0.0000 </r>
       <r>   10.2302    0.0000 </r>
      </set>
      <set comment="kpoint 15">
       <r>   -5.2371    1.0000 </r>
       <r>    2.8617    1.0000 </r>
       <r>    4.1992    1.0000 </r>
       <r>    4.1992    1.0000 </r>
       <r>    7.1799    0.0000 </r>
       <r>    9.4385    0.0000 </r>
       <r>   11.1606    0.0000 </r>
       <r>   11.1606    0.0000 </r>
      </set>
      <set comment="kpoint 16">
       <r>   -4.7617    1.0000 </r>
       <r>    1.8626    1.0000 </r>
       <r>    3.7844    1.0000 </r>
       <r>    3.7844    1.0000 </r>
       <r>    6.8446    0.0000 </r>
       <r>    8.6024    0.0000 </r>
       <r>   12.1455    0.0000 </r>
       <r>   12.1455    0.0000 </r>
      </set>
      <set comment="kpoint 17">
       <r>   -4.1882    1.0000 </r>
       <r>    0.8663    1.0000 </r>
       <r>    3.4527    1.0000 </r>
       <r>    3.4527    1.0000 </r>
       <r>    6.6010    0.0000 </r>
       <r>    7.8699    0.0000 </r>
       <r>   13.1619    0.0000 </r>
       <r>   13.1619    0.0000 </r>
      </set>
      <set comment="kpoint 18">
       <r>   -3.5226    1.0000 </r>
       <r>   -0.1108    1.0000 </r>
       <r>    3.2111    1.0000 </r>
       <r>    3.2111    1.0000 </r>
       <r>    6.4678    0.0000 </r>
       <r>    7.2854    0.0000 </r>
       <r>   14.2103    0.0000 </r>
       <r>   14.2104    0.0000 </r>
      </set>
      <set comment="kpoint 19">
       <r>   -2.7718    1.0000 </r>
       <r>   -1.0536    1.0000 </r>
       <r>    3.0653    1.0000 </r>
       <r>    3.0653    1.0000 </r>
       <r>    6.4593    0.0001 </r>
       <r>    6.8583    0.0000 </r>
       <r>   15.2601    0.0000 </r>
       <r>   15.2601    0.0000 </r>
      </set>
      <set comment="kpoint 20">
       <r>   -1.9450    1.0000 </r>
       <r>   -1.9450    1.0000 </r>
       <r>    3.0164    1.0000 </r>
       <r>    3.0164    1.0000 </r>
       <r>    6.5860    0.0000 </r>
       <r>    6.5860    0.0000 </r>
       <r>   16.0017    0.0000 </r>
       <r>   16.0018    0.0000 </r>
      </set>
      <set comment="kpoint 21">
       <r>   -1.9450    1.0000 </r>
       <r>   -1.9450    1.0000 </r>
       <r>    3.0164    1.0000 </r>
       <r>    3.0164    1.0000 </r>
       <r>    6.5860    0.0000 </r>
       <r>    6.5860    0.0000 </r>
       <r>   16.0017    0.0000 </r>
       <r>   16.0018    0.0000 </r>
      </set>
      <set comment="kpoint 22">
       <r>   -1.9478    1.0000 </r>
       <r>   -1.9377    1.0000 </r>
       <r>    2.9703    1.0000 </r>
       <r>    3.0219    1.0000 </r>
       <r>    6.5923    0.0000 </r>
       <r>    6.6545    0.0000 </r>
       <r>   15.9269    0.0000 </r>
       <r>   15.9613    0.0000 </r>
      </set>
      <set comment="kpoint 23">
       <r>   -1.9565    1.0000 </r>
       <r>   -1.9158    1.0000 </r>
       <r>    2.8427    1.0000 </r>
       <r>    3.0381    1.0000 </r>
       <r>    6.6110    0.0000 </r>
       <r>    6.8496    0.0000 </r>
       <r>   15.7265    0.0000 </r>
       <r>   15.8462    0.0000 </r>
      </set>
      <set comment="kpoint 24">
       <r>   -1.9724    1.0000 </r>
       <r>   -1.8792    1.0000 </r>
       <r>    2.6588    1.0000 </r>
       <r>    3.0652    1.0000 </r>
       <r>    6.6423    0.0000 </r>
       <r>    7.1464    0.0000 </r>
       <r>   15.4436    0.0000 </r>
       <r>   15.6698    0.0000 </r>
      </set>
      <set comment="kpoint 25">
       <r>   -1.9974    1.0000 </r>
       <r>   -1.8281    1.0000 </r>
       <r>    2.4463    1.0000 </r>
       <r>    3.1029    1.0000 </r>
       <r>    6.6859    0.0000 </r>
       <r>    7.5194    0.0000 </r>
       <r>   15.1195    0.0000 </r>
       <r>   15.4531    0.0000 </r>
      </set>
      <set comment="kpoint 26">
       <r>   -2.0341    1.0000 </r>
       <r>   -1.7625    1.0000 </r>
       <r>    2.2274    1.0000 </r>
       <r>    3.1510    1.0000 </r>
       <r>    6.7401    0.0000 </r>
       <r>    7.9500    0.0000 </r>
       <r>   14.7683    0.0000 </r>
       <r>   15.2071    0.0000 </r>
      </set>
      <set comment="kpoint 27">
       <r>   -2.0856    1.0000 </r>
       <r>   -1.6823    1.0000 </r>
       <r>    2.0189    1.0000 </r>
       <r>    3.2096    1.0000 </r>
       <r>    6.8078    0.0000 </r>
       <r>    8.4235    0.0000 </r>
       <r>   14.4115    0.0000 </r>
       <r>   14.9447    0.0000 </r>
      </set>
      <set comment="kpoint 28">
       <r>   -2.1551    1.0000 </r>
       <r>   -1.5875    1.0000 </r>
       <r>    1.8331    1.0000 </r>
       <r>    3.2783    1.0000 </r>
       <r>    6.8872    0.0000 </r>
       <r>    8.9300    0.0000 </r>
       <r>   14.0550    0.0000 </r>
       <r>   14.6633    0.0000 </r>
      </set>
      <set comment="kpoint 29">
       <r>   -2.2454    1.0000 </r>
       <r>   -1.4784    1.0000 </r>
       <r>    1.6786    1.0000 </r>
       <r>    3.3568    1.0000 </r>
       <r>    6.9779    0.0000 </r>
       <r>    9.4624    0.0000 </r>
       <r>   13.7011    0.0000 </r>
       <r>   14.2879    0.0000 </r>
      </set>
      <set comment="kpoint 30">
       <r>   -2.3580    1.0000 </r>
       <r>   -1.3543    1.0000 </r>
       <r>    1.5617    1.0000 </r>
       <r>    3.4447    1.0000 </r>
       <r>    7.0799    0.0000 </r>
       <r>   10.0163    0.0000 </r>
       <r>   13.3545    0.0000 </r>
       <r>   13.9293    0.0000 </r>
      </set>
      <set comment="kpoint 31">
       <r>   -2.3580    1.0000 </r>
       <r>   -1.3543    1.0000 </r>
       <r>    1.5617    1.0000 </r>
       <r>    3.4447    1.0000 </r>
       <r>    7.0799    0.0000 </r>
       <r>   10.0163    0.0000 </r>
       <r>   13.3545    0.0000 </r>
       <r>   13.9293    0.0000 </r>
      </set>
      <set comment="kpoint 32">
       <r>   -2.8256    1.0000 </r>
       <r>   -0.8977    1.0000 </r>
       <r>    1.4506    1.0000 </r>
       <r>    3.7593    1.0000 </r>
       <r>    7.4435    0.0000 </r>
       <r>   11.7007    0.0000 </r>
       <r>   12.3591    0.0000 </r>
       <r>   12.9770    0.0000 </r>
      </set>
      <set comment="kpoint 33">
       <r>   -3.4221    1.0000 </r>
       <r>   -0.3140    1.0000 </r>
       <r>    1.6628    1.0000 </r>
       <r>    4.1355    1.0000 </r>
       <r>    7.8756    0.0000 </r>
       <r>   11.4563    0.0000 </r>
       <r>   11.8146    0.0000 </r>
       <r>   12.6020    0.0000 </r>
      </set>
      <set comment="kpoint 34">
       <r>   -4.0484    1.0000 </r>
       <r>    0.3943    1.0000 </r>
       <r>    2.1131    1.0000 </r>
       <r>    4.5471    1.0000 </r>
       <r>    8.3294    0.0000 </r>
       <r>   10.6663    0.0000 </r>
       <r>   11.0397    0.0000 </r>
       <r>   12.0311    0.0000 </r>
      </set>
      <set comment="kpoint 35">
       <r>   -4.6357    1.0000 </r>
       <r>    1.2210    1.0000 </r>
       <r>    2.7287    1.0000 </r>
       <r>    4.9550    1.0000 </r>
       <r>    8.7137    0.0000 </r>
       <r>    9.9879    0.0000 </r>
       <r>   10.3364    0.0000 </r>
       <r>   11.6675    0.0000 </r>
      </set>
      <set comment="kpoint 36">
       <r>   -5.1445    1.0000 </r>
       <r>    2.1594    1.0000 </r>
       <r>    3.4578    1.0000 </r>
       <r>    5.3165    1.0000 </r>
       <r>    8.9200    0.0000 </r>
       <r>    9.4329    0.0000 </r>
       <r>    9.7416    0.0000 </r>
       <r>   11.5513    0.0000 </r>
      </set>
      <set comment="kpoint 37">
       <r>   -5.5541    1.0000 </r>
       <r>    3.1950    1.0000 </r>
       <r>    4.2453    1.0000 </r>
       <r>    5.5914    1.0000 </r>
       <r>    8.9217    0.0000 </r>
       <r>    8.9980    0.0000 </r>
       <r>    9.2470    0.0000 </r>
       <r>   11.4391    0.0000 </r>
      </set>
      <set comment="kpoint 38">
       <r>   -5.8529    1.0000 </r>
       <r>    4.2915    1.0000 </r>
       <r>    5.0136    1.0000 </r>
       <r>    5.7664    1.0000 </r>
       <r>    8.6852    0.0000 </r>
       <r>    8.8106    0.0000 </r>
       <r>    8.8490    0.0000 </r>
       <r>   10.7152    0.0000 </r>
      </set>
      <set comment="kpoint 39">
       <r>   -6.0343    1.0000 </r>
       <r>    5.3379    1.0000 </r>
       <r>    5.6323    1.0000 </r>
       <r>    5.8578    1.0000 </r>
       <r>    8.4975    0.0000 </r>
       <r>    8.5562    0.0000 </r>
       <r>    8.6355    0.0000 </r>
       <r>    9.6908    0.0000 </r>
      </set>
      <set comment="kpoint 40">
       <r>   -6.0951    1.0000 </r>
       <r>    5.8852    1.0000 </r>
       <r>    5.8852    1.0000 </r>
       <r>    5.8852    1.0000 </r>
       <r>    8.4349    0.0000 </r>
       <r>    8.4349    0.0000 </r>
       <r>    8.4349    0.0000 </r>
       <r>    9.2556    0.0000 </r>
      </set>
     </set>
    </set>
   </array>
  </eigenvalues>
  <separator name="orbital magnetization" >
   <v name="MAGDIPOLOUT">      0.00000000      0.00000000      0.00000000</v>
  </separator>
  <dos>
   <i name="efermi">      6.18664728 </i>
   <total>
    <array>
     <dimension dim="1">gridpoints</dimension>
     <dimension dim="2">spin</dimension>
     <field>energy</field>
     <field>total</field>
     <field>integrated</field>
     <set>
      <set comment="spin 1">
       <r>    -7.1999     0.0000     0.0000 </r>
       <r>    -7.1189     0.0000     0.0000 </r>
       <r>    -7.0379     0.0000     0.0000 </r>
       <r>    -6.9569     0.0000     0.0000 </r>
       <r>    -6.8759     0.0000     0.0000 </r>
       <r>    -6.7948     0.0000     0.0000 </r>
       <r>    -6.7138     0.0000     0.0000 </r>
       <r>    -6.6328     0.0000     0.0000 </r>
       <r>    -6.5518     0.0000     0.0000 </r>
       <r>    -6.4707     0.0000     0.0000 </r>
       <r>    -6.3897     0.0000     0.0000 </r>
       <r>    -6.3087     0.0025     0.0002 </r>
       <r>    -6.2277     0.0627     0.0053 </r>
       <r>    -6.1467     0.5025     0.0460 </r>
       <r>    -6.0656     1.3763     0.1575 </r>
       <r>    -5.9846     1.4750     0.2770 </r>
       <r>    -5.9036     1.0162     0.3593 </r>
       <r>    -5.8226     0.8086     0.4249 </r>
       <r>    -5.7415     0.5594     0.4702 </r>
       <r>    -5.6605     0.4621     0.5076 </r>
       <r>    -5.5795     0.5585     0.5529 </r>
       <r>    -5.4985     0.5894     0.6006 </r>
       <r>    -5.4175     0.4207     0.6347 </r>
       <r>    -5.3364     0.2139     0.6520 </r>
       <r>    -5.2554     0.2694     0.6739 </r>
       <r>    -5.1744     0.5371     0.7174 </r>
       <r>    -5.0934     0.6263     0.7681 </r>
       <r>    -5.0123     0.3285     0.7947 </r>
       <r>    -4.9313     0.0671     0.8002 </r>
       <r>    -4.8503     0.0815     0.8068 </r>
       <r>    -4.7693     0.3573     0.8357 </r>
       <r>    -4.6883     0.6293     0.8867 </r>
       <r>    -4.6072     0.5224     0.9290 </r>
       <r>    -4.5262     0.2192     0.9468 </r>
       <r>    -4.4452     0.0478     0.9507 </r>
       <r>    -4.3642     0.0960     0.9584 </r>
       <r>    -4.2832     0.2995     0.9827 </r>
       <r>    -4.2021     0.4240     1.0171 </r>
       <r>    -4.1211     0.3917     1.0488 </r>
       <r>    -4.0401     0.3714     1.0789 </r>
       <r>    -3.9591     0.3871     1.1103 </r>
       <r>    -3.8780     0.3531     1.1389 </r>
       <r>    -3.7970     0.2971     1.1629 </r>
       <r>    -3.7160     0.2911     1.1865 </r>
       <r>    -3.6350     0.1773     1.2009 </r>
       <r>    -3.5540     0.2101     1.2179 </r>
       <r>    -3.4729     0.3930     1.2497 </r>
       <r>    -3.3919     0.3937     1.2816 </r>
       <r>    -3.3109     0.1899     1.2970 </r>
       <r>    -3.2299     0.0345     1.2998 </r>
       <r>    -3.1488     0.0020     1.3000 </r>
       <r>    -3.0678     0.0002     1.3000 </r>
       <r>    -2.9868     0.0075     1.3006 </r>
       <r>    -2.9058     0.0894     1.3079 </r>
       <r>    -2.8248     0.3544     1.3366 </r>
       <r>    -2.7437     0.4932     1.3765 </r>
       <r>    -2.6627     0.2451     1.3964 </r>
       <r>    -2.5817     0.0430     1.3999 </r>
       <r>    -2.5007     0.0284     1.4022 </r>
       <r>    -2.4197     0.2137     1.4195 </r>
       <r>    -2.3386     0.5703     1.4657 </r>
       <r>    -2.2576     0.6441     1.5179 </r>
       <r>    -2.1766     0.6049     1.5669 </r>
       <r>    -2.0956     0.8229     1.6336 </r>
       <r>    -2.0145     1.6765     1.7694 </r>
       <r>    -1.9335     2.9187     2.0059 </r>
       <r>    -1.8525     2.5254     2.2105 </r>
       <r>    -1.7715     1.2343     2.3105 </r>
       <r>    -1.6905     0.6988     2.3671 </r>
       <r>    -1.6094     0.5557     2.4121 </r>
       <r>    -1.5284     0.4898     2.4518 </r>
       <r>    -1.4474     0.4915     2.4917 </r>
       <r>    -1.3664     0.6010     2.5403 </r>
       <r>    -1.2853     0.5344     2.5836 </r>
       <r>    -1.2043     0.2387     2.6030 </r>
       <r>    -1.1233     0.3038     2.6276 </r>
       <r>    -1.0423     0.5214     2.6698 </r>
       <r>    -0.9613     0.4649     2.7075 </r>
       <r>    -0.8802     0.5223     2.7498 </r>
       <r>    -0.7992     0.4568     2.7868 </r>
       <r>    -0.7182     0.1468     2.7987 </r>
       <r>    -0.6372     0.0152     2.8000 </r>
       <r>    -0.5562     0.0007     2.8000 </r>
       <r>    -0.4751     0.0077     2.8006 </r>
       <r>    -0.3941     0.0919     2.8081 </r>
       <r>    -0.3131     0.3639     2.8376 </r>
       <r>    -0.2321     0.5203     2.8797 </r>
       <r>    -0.1510     0.3855     2.9110 </r>
       <r>    -0.0700     0.3058     2.9357 </r>
       <r>     0.0110     0.1499     2.9479 </r>
       <r>     0.0920     0.0250     2.9499 </r>
       <r>     0.1730     0.0018     2.9500 </r>
       <r>     0.2541     0.0141     2.9512 </r>
       <r>     0.3351     0.1110     2.9602 </r>
       <r>     0.4161     0.2853     2.9833 </r>
       <r>     0.4971     0.3400     3.0108 </r>
       <r>     0.5782     0.3095     3.0359 </r>
       <r>     0.6592     0.1495     3.0480 </r>
       <r>     0.7402     0.0462     3.0518 </r>
       <r>     0.8212     0.1398     3.0631 </r>
       <r>     0.9022     0.2669     3.0847 </r>
       <r>     0.9833     0.1586     3.0976 </r>
       <r>     1.0643     0.0367     3.1005 </r>
       <r>     1.1453     0.0811     3.1071 </r>
       <r>     1.2263     0.2402     3.1266 </r>
       <r>     1.3074     0.2453     3.1465 </r>
       <r>     1.3884     0.2703     3.1683 </r>
       <r>     1.4694     0.6254     3.2190 </r>
       <r>     1.5504     0.8737     3.2898 </r>
       <r>     1.6314     0.8960     3.3624 </r>
       <r>     1.7125     0.7542     3.4235 </r>
       <r>     1.7935     0.5536     3.4684 </r>
       <r>     1.8745     0.5786     3.5152 </r>
       <r>     1.9555     0.4685     3.5532 </r>
       <r>     2.0365     0.4380     3.5887 </r>
       <r>     2.1176     0.6214     3.6390 </r>
       <r>     2.1986     0.7115     3.6967 </r>
       <r>     2.2796     0.4929     3.7366 </r>
       <r>     2.3606     0.2749     3.7589 </r>
       <r>     2.4417     0.4538     3.7957 </r>
       <r>     2.5227     0.5032     3.8364 </r>
       <r>     2.6037     0.3080     3.8614 </r>
       <r>     2.6847     0.4320     3.8964 </r>
       <r>     2.7657     0.5770     3.9431 </r>
       <r>     2.8468     0.6858     3.9987 </r>
       <r>     2.9278     1.0273     4.0819 </r>
       <r>     3.0088     2.0963     4.2518 </r>
       <r>     3.0898     2.8704     4.4843 </r>
       <r>     3.1709     2.3084     4.6714 </r>
       <r>     3.2519     1.7578     4.8138 </r>
       <r>     3.3329     1.2145     4.9122 </r>
       <r>     3.4139     1.3263     5.0197 </r>
       <r>     3.4949     1.6960     5.1571 </r>
       <r>     3.5760     0.9536     5.2343 </r>
       <r>     3.6570     0.2731     5.2565 </r>
       <r>     3.7380     0.5118     5.2979 </r>
       <r>     3.8190     0.9726     5.3767 </r>
       <r>     3.9000     0.6935     5.4329 </r>
       <r>     3.9811     0.2007     5.4492 </r>
       <r>     4.0621     0.1375     5.4603 </r>
       <r>     4.1431     0.5284     5.5031 </r>
       <r>     4.2241     1.0249     5.5862 </r>
       <r>     4.3052     0.9339     5.6618 </r>
       <r>     4.3862     0.4135     5.6953 </r>
       <r>     4.4672     0.2380     5.7146 </r>
       <r>     4.5482     0.5804     5.7616 </r>
       <r>     4.6292     1.1652     5.8560 </r>
       <r>     4.7103     2.0199     6.0197 </r>
       <r>     4.7913     2.0309     6.1843 </r>
       <r>     4.8723     1.3536     6.2939 </r>
       <r>     4.9533     1.1141     6.3842 </r>
       <r>     5.0344     1.1535     6.4776 </r>
       <r>     5.1154     0.9366     6.5535 </r>
       <r>     5.1964     1.0425     6.6380 </r>
       <r>     5.2774     1.2887     6.7424 </r>
       <r>     5.3584     1.1251     6.8336 </r>
       <r>     5.4395     1.1288     6.9250 </r>
       <r>     5.5205     1.1144     7.0153 </r>
       <r>     5.6015     1.3591     7.1254 </r>
       <r>     5.6825     1.7605     7.2681 </r>
       <r>     5.7635     1.6752     7.4038 </r>
       <r>     5.8446     2.4892     7.6055 </r>
       <r>     5.9256     3.1010     7.8567 </r>
       <r>     6.0066     1.5135     7.9794 </r>
       <r>     6.0876     0.2426     7.9990 </r>
       <r>     6.1687     0.0120     8.0000 </r>
       <r>     6.2497     0.0017     8.0001 </r>
       <r>     6.3307     0.0364     8.0031 </r>
       <r>     6.4117     0.2732     8.0252 </r>
       <r>     6.4927     0.8711     8.0958 </r>
       <r>     6.5738     1.9102     8.2506 </r>
       <r>     6.6548     2.5801     8.4596 </r>
       <r>     6.7358     1.8496     8.6095 </r>
       <r>     6.8168     1.4110     8.7238 </r>
       <r>     6.8979     1.4480     8.8411 </r>
       <r>     6.9789     1.0094     8.9229 </r>
       <r>     7.0599     0.8273     8.9899 </r>
       <r>     7.1409     0.9772     9.0691 </r>
       <r>     7.2219     0.8291     9.1363 </r>
       <r>     7.3030     0.5615     9.1818 </r>
       <r>     7.3840     0.6296     9.2328 </r>
       <r>     7.4650     1.0965     9.3216 </r>
       <r>     7.5460     1.2679     9.4243 </r>
       <r>     7.6271     0.9372     9.5003 </r>
       <r>     7.7081     0.5205     9.5425 </r>
       <r>     7.7891     0.4533     9.5792 </r>
       <r>     7.8701     0.8477     9.6479 </r>
       <r>     7.9511     1.0925     9.7364 </r>
       <r>     8.0322     0.9168     9.8107 </r>
       <r>     8.1132     0.4406     9.8464 </r>
       <r>     8.1942     0.2815     9.8692 </r>
       <r>     8.2752     0.6478     9.9217 </r>
       <r>     8.3562     1.5648    10.0484 </r>
       <r>     8.4373     3.2822    10.3144 </r>
       <r>     8.5183     3.6772    10.6123 </r>
       <r>     8.5993     2.4154    10.8080 </r>
       <r>     8.6803     1.7953    10.9535 </r>
       <r>     8.7614     1.8771    11.1055 </r>
       <r>     8.8424     1.7561    11.2478 </r>
       <r>     8.9234     1.5049    11.3698 </r>
       <r>     9.0044     1.2251    11.4690 </r>
       <r>     9.0854     0.9780    11.5482 </r>
       <r>     9.1665     1.2542    11.6499 </r>
       <r>     9.2475     2.5071    11.8530 </r>
       <r>     9.3285     3.4601    12.1333 </r>
       <r>     9.4095     3.3277    12.4030 </r>
       <r>     9.4906     2.3946    12.5970 </r>
       <r>     9.5716     1.2310    12.6967 </r>
       <r>     9.6526     0.7505    12.7575 </r>
       <r>     9.7336     0.6239    12.8081 </r>
       <r>     9.8146     0.4066    12.8410 </r>
       <r>     9.8957     0.2143    12.8584 </r>
       <r>     9.9767     0.5231    12.9008 </r>
       <r>    10.0577     0.8306    12.9681 </r>
       <r>    10.1387     0.7572    13.0294 </r>
       <r>    10.2197     1.0555    13.1149 </r>
       <r>    10.3008     1.0922    13.2034 </r>
       <r>    10.3818     0.7640    13.2653 </r>
       <r>    10.4628     0.3572    13.2943 </r>
       <r>    10.5438     0.0970    13.3021 </r>
       <r>    10.6249     0.2080    13.3190 </r>
       <r>    10.7059     0.4816    13.3580 </r>
       <r>    10.7869     0.3957    13.3900 </r>
       <r>    10.8679     0.1168    13.3995 </r>
       <r>    10.9489     0.0691    13.4051 </r>
       <r>    11.0300     0.2519    13.4255 </r>
       <r>    11.1110     0.5042    13.4664 </r>
       <r>    11.1920     0.6276    13.5172 </r>
       <r>    11.2730     0.4421    13.5530 </r>
       <r>    11.3541     0.4209    13.5871 </r>
       <r>    11.4351     0.6595    13.6406 </r>
       <r>    11.5161     0.7246    13.6993 </r>
       <r>    11.5971     0.5876    13.7469 </r>
       <r>    11.6781     0.6084    13.7962 </r>
       <r>    11.7592     0.6106    13.8457 </r>
       <r>    11.8402     0.4319    13.8807 </r>
       <r>    11.9212     0.2355    13.8997 </r>
       <r>    12.0022     0.2380    13.9190 </r>
       <r>    12.0832     0.4739    13.9574 </r>
       <r>    12.1643     0.6426    14.0095 </r>
       <r>    12.2453     0.4958    14.0497 </r>
       <r>    12.3263     0.4697    14.0877 </r>
       <r>    12.4073     0.5203    14.1299 </r>
       <r>    12.4884     0.2512    14.1502 </r>
       <r>    12.5694     0.1949    14.1660 </r>
       <r>    12.6504     0.2671    14.1876 </r>
       <r>    12.7314     0.1318    14.1983 </r>
       <r>    12.8124     0.0259    14.2004 </r>
       <r>    12.8935     0.0682    14.2059 </r>
       <r>    12.9745     0.2315    14.2247 </r>
       <r>    13.0555     0.3142    14.2502 </r>
       <r>    13.1365     0.4777    14.2889 </r>
       <r>    13.2176     0.7447    14.3492 </r>
       <r>    13.2986     0.7270    14.4081 </r>
       <r>    13.3796     0.6713    14.4625 </r>
       <r>    13.4606     0.3993    14.4949 </r>
       <r>    13.5416     0.2514    14.5152 </r>
       <r>    13.6227     0.6014    14.5639 </r>
       <r>    13.7037     0.9890    14.6441 </r>
       <r>    13.7847     0.9191    14.7185 </r>
       <r>    13.8657     0.5640    14.7642 </r>
       <r>    13.9468     0.5980    14.8127 </r>
       <r>    14.0278     0.5816    14.8598 </r>
       <r>    14.1088     0.4480    14.8961 </r>
       <r>    14.1898     0.5582    14.9413 </r>
       <r>    14.2708     0.7455    15.0017 </r>
       <r>    14.3519     0.5779    15.0486 </r>
       <r>    14.4329     0.3864    15.0799 </r>
       <r>    14.5139     0.2132    15.0971 </r>
       <r>    14.5949     0.1395    15.1084 </r>
       <r>    14.6759     0.3070    15.1333 </r>
       <r>    14.7570     0.4202    15.1674 </r>
       <r>    14.8380     0.3389    15.1948 </r>
       <r>    14.9190     0.2759    15.2172 </r>
       <r>    15.0000     0.3001    15.2415 </r>
       <r>    15.0811     0.2995    15.2658 </r>
       <r>    15.1621     0.5174    15.3077 </r>
       <r>    15.2431     0.8116    15.3734 </r>
       <r>    15.3241     0.7375    15.4332 </r>
       <r>    15.4051     0.5158    15.4750 </r>
       <r>    15.4862     0.5619    15.5205 </r>
       <r>    15.5672     0.3590    15.5496 </r>
       <r>    15.6482     0.3209    15.5756 </r>
       <r>    15.7292     0.5280    15.6184 </r>
       <r>    15.8103     0.5405    15.6622 </r>
       <r>    15.8913     0.7334    15.7216 </r>
       <r>    15.9723     1.3490    15.8309 </r>
       <r>    16.0533     1.4288    15.9467 </r>
       <r>    16.1343     0.5778    15.9935 </r>
       <r>    16.2154     0.0773    15.9997 </r>
       <r>    16.2964     0.0032    16.0000 </r>
       <r>    16.3774     0.0000    16.0000 </r>
       <r>    16.4584     0.0000    16.0000 </r>
       <r>    16.5394     0.0000    16.0000 </r>
       <r>    16.6205     0.0000    16.0000 </r>
       <r>    16.7015     0.0000    16.0000 </r>
       <r>    16.7825     0.0000    16.0000 </r>
       <r>    16.8635     0.0000    16.0000 </r>
       <r>    16.9446     0.0000    16.0000 </r>
       <r>    17.0256     0.0000    16.0000 </r>
       <r>    17.1066     0.0000    16.0000 </r>
      </set>
     </set>
    </array>
   </total>
   <partial>
    <array>
     <dimension dim="1">gridpoints</dimension>
     <dimension dim="2">spin</dimension>
     <dimension dim="3">ion</dimension>
     <field>energy</field>
     <field>    s</field>
     <field>   py</field>
     <field>   pz</field>
     <field>   px</field>
     <field>  dxy</field>
     <field>  dyz</field>
     <field>  dz2</field>
     <field>  dxz</field>
     <field>x2-y2</field>
     <set>
      <set comment="ion 1">
       <set comment="spin 1">
        <r>    -7.1999     0.0000     0.0000     0.0000     0.0000     0.0000     0.0000     0.0000     0.0000     0.0000 </r>
        <r>    -7.1189     0.0000     0.0000     0.0000     0.0000     0.0000     0.0000     0.0000     0.0000     0.0000 </r>
        <r>    -7.0379     0.0000     0.0000     0.0000     0.0000     0.0000     0.0000     0.0000     0.0000     0.0000 </r>
        <r>    -6.9569     0.0000     0.0000     0.0000     0.0000     0.0000     0.0000     0.0000     0.0000     0.0000 </r>
        <r>    -6.8759     0.0000     0.0000     0.0000     0.0000     0.0000     0.0000     0.0000     0.0000     0.0000 </r>
        <r>    -6.7948     0.0000     0.0000     0.0000     0.0000     0.0000     0.0000     0.0000     0.0000     0.0000 </r>
        <r>    -6.7138     0.0000     0.0000     0.0000     0.0000     0.0000     0.0000     0.0000     0.0000     0.0000 </r>
        <r>    -6.6328     0.0000     0.0000     0.0000     0.0000     0.0000     0.0000     0.0000     0.0000     0.0000 </r>
        <r>    -6.5518     0.0000     0.0000     0.0000     0.0000     0.0000     0.0000     0.0000     0.0000     0.0000 </r>
        <r>    -6.4707     0.0000     0.0000     0.0000     0.0000     0.0000     0.0000     0.0000     0.0000     0.0000 </r>
        <r>    -6.3897     0.0000     0.0000     0.0000     0.0000     0.0000     0.0000     0.0000     0.0000     0.0000 </r>
        <r>    -6.3087     0.0005     0.0000     0.0000     0.0000     0.0000     0.0000     0.0000     0.0000     0.0000 </r>
        <r>    -6.2277     0.0134     0.0000     0.0000     0.0000     0.0000     0.0000     0.0000     0.0000     0.0000 </r>
        <r>    -6.1467     0.1077     0.0000     0.0000     0.0000     0.0000     0.0000     0.0000     0.0000     0.0000 </r>
        <r>    -6.0656     0.2949     0.0001     0.0002     0.0000     0.0000     0.0000     0.0000     0.0000     0.0000 </r>
        <r>    -5.9846     0.3159     0.0002     0.0005     0.0001     0.0000     0.0000     0.0000     0.0000     0.0000 </r>
        <r>    -5.9036     0.2172     0.0004     0.0009     0.0002     0.0000     0.0000     0.0000     0.0000     0.0000 </r>
        <r>    -5.8226     0.1725     0.0005     0.0012     0.0002     0.0000     0.0000     0.0000     0.0000     0.0000 </r>
        <r>    -5.7415     0.1191     0.0005     0.0009     0.0003     0.0000     0.0000     0.0000     0.0000     0.0000 </r>
        <r>    -5.6605     0.0981     0.0005     0.0012     0.0003     0.0000     0.0000     0.0000     0.0000     0.0000 </r>
        <r>    -5.5795     0.1184     0.0007     0.0021     0.0002     0.0000     0.0000     0.0000     0.0000     0.0000 </r>
        <r>    -5.4985     0.1248     0.0011     0.0020     0.0004     0.0000     0.0000     0.0000     0.0000     0.0000 </r>
        <r>    -5.4175     0.0891     0.0009     0.0011     0.0006     0.0000     0.0000     0.0000     0.0000     0.0000 </r>
        <r>    -5.3364     0.0452     0.0004     0.0008     0.0003     0.0000     0.0000     0.0000     0.0000     0.0000 </r>
        <r>    -5.2554     0.0566     0.0003     0.0021     0.0001     0.0000     0.0000     0.0000     0.0000     0.0000 </r>
        <r>    -5.1744     0.1130     0.0012     0.0036     0.0004     0.0000     0.0000     0.0000     0.0000     0.0000 </r>
        <r>    -5.0934     0.1319     0.0021     0.0031     0.0009     0.0000     0.0000     0.0000     0.0000     0.0000 </r>
        <r>    -5.0123     0.0693     0.0012     0.0013     0.0007     0.0000     0.0000     0.0000     0.0000     0.0000 </r>
        <r>    -4.9313     0.0141     0.0002     0.0003     0.0001     0.0000     0.0000     0.0000     0.0000     0.0000 </r>
        <r>    -4.8503     0.0170     0.0001     0.0010     0.0001     0.0000     0.0000     0.0000     0.0000     0.0000 </r>
        <r>    -4.7693     0.0747     0.0006     0.0038     0.0005     0.0000     0.0000     0.0000     0.0000     0.0000 </r>
        <r>    -4.6883     0.1320     0.0020     0.0055     0.0012     0.0000     0.0000     0.0000     0.0000     0.0000 </r>
        <r>    -4.6072     0.1097     0.0026     0.0038     0.0010     0.0000     0.0000     0.0000     0.0000     0.0000 </r>
        <r>    -4.5262     0.0460     0.0014     0.0015     0.0003     0.0000     0.0000     0.0000     0.0000     0.0000 </r>
        <r>    -4.4452     0.0101     0.0003     0.0003     0.0001     0.0000     0.0000     0.0000     0.0000     0.0000 </r>
        <r>    -4.3642     0.0206     0.0005     0.0005     0.0004     0.0000     0.0000     0.0000     0.0000     0.0000 </r>
        <r>    -4.2832     0.0638     0.0012     0.0023     0.0012     0.0000     0.0000     0.0000     0.0000     0.0000 </r>
        <r>    -4.2021     0.0889     0.0011     0.0055     0.0011     0.0000     0.0000     0.0000     0.0000     0.0000 </r>
        <r>    -4.1211     0.0813     0.0010     0.0063     0.0005     0.0000     0.0000     0.0000     0.0000     0.0000 </r>
        <r>    -4.0401     0.0779     0.0023     0.0043     0.0007     0.0000     0.0000     0.0000     0.0000     0.0000 </r>
        <r>    -3.9591     0.0830     0.0027     0.0029     0.0013     0.0000     0.0000     0.0000     0.0000     0.0000 </r>
        <r>    -3.8780     0.0775     0.0019     0.0020     0.0016     0.0000     0.0000     0.0000     0.0000     0.0000 </r>
        <r>    -3.7970     0.0664     0.0014     0.0014     0.0014     0.0000     0.0000     0.0000     0.0000     0.0000 </r>
        <r>    -3.7160     0.0657     0.0013     0.0014     0.0013     0.0000     0.0000     0.0000     0.0000     0.0000 </r>
        <r>    -3.6350     0.0393     0.0007     0.0016     0.0007     0.0000     0.0000     0.0000     0.0000     0.0000 </r>
        <r>    -3.5540     0.0431     0.0003     0.0051     0.0002     0.0000     0.0000     0.0000     0.0000     0.0000 </r>
        <r>    -3.4729     0.0806     0.0012     0.0088     0.0007     0.0000     0.0000     0.0000     0.0000     0.0000 </r>
        <r>    -3.3919     0.0821     0.0025     0.0062     0.0015     0.0000     0.0000     0.0000     0.0000     0.0000 </r>
        <r>    -3.3109     0.0401     0.0016     0.0021     0.0009     0.0000     0.0000     0.0000     0.0000     0.0000 </r>
        <r>    -3.2299     0.0073     0.0003     0.0003     0.0002     0.0000     0.0000     0.0000     0.0000     0.0000 </r>
        <r>    -3.1488     0.0004     0.0000     0.0000     0.0000     0.0000     0.0000     0.0000     0.0000     0.0000 </r>
        <r>    -3.0678     0.0000     0.0000     0.0000     0.0000     0.0000     0.0000     0.0000     0.0000     0.0000 </r>
        <r>    -2.9868     0.0016     0.0001     0.0001     0.0001     0.0000     0.0000     0.0000     0.0000     0.0000 </r>
        <r>    -2.9058     0.0189     0.0006     0.0012     0.0009     0.0000     0.0000     0.0000     0.0000     0.0000 </r>
        <r>    -2.8248     0.0741     0.0019     0.0064     0.0028     0.0000     0.0000     0.0000     0.0000     0.0000 </r>
        <r>    -2.7437     0.1016     0.0019     0.0116     0.0028     0.0000     0.0000     0.0000     0.0000     0.0000 </r>
        <r>    -2.6627     0.0497     0.0006     0.0070     0.0009     0.0000     0.0000     0.0000     0.0000     0.0000 </r>
        <r>    -2.5817     0.0086     0.0001     0.0014     0.0001     0.0000     0.0000     0.0000     0.0000     0.0000 </r>
        <r>    -2.5007     0.0060     0.0001     0.0005     0.0004     0.0000     0.0000     0.0000     0.0000     0.0000 </r>
        <r>    -2.4197     0.0458     0.0011     0.0031     0.0030     0.0000     0.0000     0.0000     0.0000     0.0000 </r>
        <r>    -2.3386     0.1220     0.0028     0.0089     0.0075     0.0000     0.0000     0.0000     0.0000     0.0000 </r>
        <r>    -2.2576     0.1373     0.0028     0.0128     0.0064     0.0000     0.0000     0.0000     0.0000     0.0000 </r>
        <r>    -2.1766     0.1274     0.0021     0.0170     0.0029     0.0000     0.0000     0.0000     0.0000     0.0000 </r>
        <r>    -2.0956     0.1692     0.0017     0.0291     0.0017     0.0000     0.0000     0.0000     0.0000     0.0000 </r>
        <r>    -2.0145     0.3340     0.0014     0.0697     0.0014     0.0000     0.0000     0.0000     0.0000     0.0000 </r>
        <r>    -1.9335     0.5713     0.0010     0.1298     0.0010     0.0000     0.0000     0.0000     0.0000     0.0000 </r>
        <r>    -1.8525     0.4904     0.0008     0.1148     0.0008     0.0000     0.0000     0.0000     0.0000     0.0000 </r>
        <r>    -1.7715     0.2377     0.0010     0.0565     0.0010     0.0000     0.0000     0.0000     0.0000     0.0000 </r>
        <r>    -1.6905     0.1332     0.0013     0.0319     0.0013     0.0000     0.0000     0.0000     0.0000     0.0000 </r>
        <r>    -1.6094     0.1050     0.0015     0.0252     0.0016     0.0000     0.0000     0.0000     0.0000     0.0000 </r>
        <r>    -1.5284     0.0918     0.0018     0.0220     0.0019     0.0000     0.0000     0.0000     0.0000     0.0000 </r>
        <r>    -1.4474     0.0914     0.0022     0.0200     0.0043     0.0000     0.0000     0.0000     0.0000     0.0000 </r>
        <r>    -1.3664     0.1109     0.0032     0.0188     0.0114     0.0000     0.0000     0.0000     0.0000     0.0000 </r>
        <r>    -1.2853     0.0981     0.0031     0.0142     0.0128     0.0000     0.0000     0.0000     0.0000     0.0000 </r>
        <r>    -1.2043     0.0401     0.0025     0.0067     0.0060     0.0000     0.0000     0.0000     0.0000     0.0000 </r>
        <r>    -1.1233     0.0397     0.0063     0.0117     0.0067     0.0000     0.0000     0.0000     0.0000     0.0000 </r>
        <r>    -1.0423     0.0747     0.0084     0.0224     0.0089     0.0000     0.0000     0.0000     0.0000     0.0000 </r>
        <r>    -0.9613     0.0728     0.0059     0.0178     0.0093     0.0000     0.0000     0.0000     0.0000     0.0000 </r>
        <r>    -0.8802     0.0769     0.0094     0.0124     0.0179     0.0000     0.0000     0.0000     0.0000     0.0000 </r>
        <r>    -0.7992     0.0617     0.0101     0.0104     0.0167     0.0000     0.0000     0.0000     0.0000     0.0000 </r>
        <r>    -0.7182     0.0185     0.0036     0.0037     0.0052     0.0000     0.0000     0.0000     0.0000     0.0000 </r>
        <r>    -0.6372     0.0018     0.0004     0.0004     0.0005     0.0000     0.0000     0.0000     0.0000     0.0000 </r>
        <r>    -0.5562     0.0001     0.0000     0.0000     0.0000     0.0000     0.0000     0.0000     0.0000     0.0000 </r>
        <r>    -0.4751     0.0012     0.0001     0.0001     0.0003     0.0000     0.0000     0.0000     0.0000     0.0000 </r>
        <r>    -0.3941     0.0141     0.0018     0.0018     0.0037     0.0000     0.0000     0.0000     0.0000     0.0000 </r>
        <r>    -0.3131     0.0527     0.0079     0.0080     0.0141     0.0000     0.0000     0.0000     0.0000     0.0000 </r>
        <r>    -0.2321     0.0710     0.0123     0.0140     0.0184     0.0000     0.0000     0.0000     0.0000     0.0000 </r>
        <r>    -0.1510     0.0565     0.0066     0.0167     0.0084     0.0000     0.0000     0.0000     0.0000     0.0000 </r>
        <r>    -0.0700     0.0534     0.0011     0.0193     0.0013     0.0000     0.0000     0.0000     0.0000     0.0000 </r>
        <r>     0.0110     0.0273     0.0001     0.0101     0.0001     0.0000     0.0000     0.0000     0.0000     0.0000 </r>
        <r>     0.0920     0.0046     0.0000     0.0017     0.0000     0.0000     0.0000     0.0000     0.0000     0.0000 </r>
        <r>     0.1730     0.0003     0.0000     0.0001     0.0000     0.0000     0.0000     0.0000     0.0000     0.0000 </r>
        <r>     0.2541     0.0022     0.0003     0.0003     0.0006     0.0000     0.0000     0.0000     0.0000     0.0000 </r>
        <r>     0.3351     0.0171     0.0025     0.0025     0.0045     0.0000     0.0000     0.0000     0.0000     0.0000 </r>
        <r>     0.4161     0.0428     0.0068     0.0068     0.0114     0.0000     0.0000     0.0000     0.0000     0.0000 </r>
        <r>     0.4971     0.0450     0.0096     0.0096     0.0129     0.0000     0.0000     0.0000     0.0000     0.0000 </r>
        <r>     0.5782     0.0346     0.0103     0.0104     0.0111     0.0000     0.0000     0.0000     0.0000     0.0000 </r>
        <r>     0.6592     0.0159     0.0052     0.0053     0.0052     0.0000     0.0000     0.0000     0.0000     0.0000 </r>
        <r>     0.7402     0.0064     0.0009     0.0026     0.0009     0.0000     0.0000     0.0000     0.0000     0.0000 </r>
        <r>     0.8212     0.0243     0.0000     0.0111     0.0000     0.0000     0.0000     0.0000     0.0000     0.0000 </r>
        <r>     0.9022     0.0466     0.0000     0.0213     0.0000     0.0000     0.0000     0.0000     0.0000     0.0000 </r>
        <r>     0.9833     0.0277     0.0000     0.0127     0.0000     0.0000     0.0000     0.0000     0.0000     0.0000 </r>
        <r>     1.0643     0.0061     0.0002     0.0025     0.0003     0.0000     0.0000     0.0000     0.0000     0.0000 </r>
        <r>     1.1453     0.0114     0.0024     0.0026     0.0030     0.0000     0.0000     0.0000     0.0000     0.0000 </r>
        <r>     1.2263     0.0335     0.0073     0.0073     0.0091     0.0000     0.0000     0.0000     0.0000     0.0000 </r>
        <r>     1.3074     0.0321     0.0078     0.0078     0.0096     0.0000     0.0000     0.0000     0.0000     0.0000 </r>
        <r>     1.3884     0.0186     0.0109     0.0109     0.0127     0.0000     0.0000     0.0000     0.0000     0.0000 </r>
        <r>     1.4694     0.0267     0.0282     0.0274     0.0310     0.0000     0.0000     0.0000     0.0000     0.0000 </r>
        <r>     1.5504     0.0214     0.0436     0.0402     0.0444     0.0000     0.0000     0.0000     0.0000     0.0000 </r>
        <r>     1.6314     0.0070     0.0474     0.0408     0.0500     0.0000     0.0000     0.0000     0.0000     0.0000 </r>
        <r>     1.7125     0.0047     0.0391     0.0317     0.0465     0.0000     0.0000     0.0000     0.0000     0.0000 </r>
        <r>     1.7935     0.0162     0.0261     0.0255     0.0301     0.0000     0.0000     0.0000     0.0000     0.0000 </r>
        <r>     1.8745     0.0409     0.0210     0.0339     0.0217     0.0000     0.0000     0.0000     0.0000     0.0000 </r>
        <r>     1.9555     0.0346     0.0172     0.0271     0.0176     0.0000     0.0000     0.0000     0.0000     0.0000 </r>
        <r>     2.0365     0.0133     0.0235     0.0161     0.0270     0.0000     0.0000     0.0000     0.0000     0.0000 </r>
        <r>     2.1176     0.0222     0.0311     0.0206     0.0413     0.0000     0.0000     0.0000     0.0000     0.0000 </r>
        <r>     2.1986     0.0363     0.0353     0.0234     0.0441     0.0000     0.0000     0.0000     0.0000     0.0000 </r>
        <r>     2.2796     0.0205     0.0292     0.0138     0.0314     0.0000     0.0000     0.0000     0.0000     0.0000 </r>
        <r>     2.3606     0.0087     0.0181     0.0069     0.0183     0.0000     0.0000     0.0000     0.0000     0.0000 </r>
        <r>     2.4417     0.0198     0.0286     0.0125     0.0286     0.0000     0.0000     0.0000     0.0000     0.0000 </r>
        <r>     2.5227     0.0229     0.0314     0.0141     0.0315     0.0000     0.0000     0.0000     0.0000     0.0000 </r>
        <r>     2.6037     0.0088     0.0213     0.0067     0.0226     0.0000     0.0000     0.0000     0.0000     0.0000 </r>
        <r>     2.6847     0.0040     0.0296     0.0082     0.0377     0.0000     0.0000     0.0000     0.0000     0.0000 </r>
        <r>     2.7657     0.0117     0.0325     0.0167     0.0479     0.0000     0.0000     0.0000     0.0000     0.0000 </r>
        <r>     2.8468     0.0324     0.0360     0.0291     0.0451     0.0000     0.0000     0.0000     0.0000     0.0000 </r>
        <r>     2.9278     0.0377     0.0740     0.0298     0.0756     0.0000     0.0000     0.0000     0.0000     0.0000 </r>
        <r>     3.0088     0.0146     0.1992     0.0114     0.1992     0.0000     0.0000     0.0000     0.0000     0.0000 </r>
        <r>     3.0898     0.0057     0.2842     0.0035     0.2834     0.0000     0.0000     0.0000     0.0000     0.0000 </r>
        <r>     3.1709     0.0187     0.2223     0.0095     0.2186     0.0000     0.0000     0.0000     0.0000     0.0000 </r>
        <r>     3.2519     0.0265     0.1635     0.0137     0.1581     0.0000     0.0000     0.0000     0.0000     0.0000 </r>
        <r>     3.3329     0.0123     0.1147     0.0103     0.1107     0.0000     0.0000     0.0000     0.0000     0.0000 </r>
        <r>     3.4139     0.0085     0.1198     0.0260     0.1126     0.0000     0.0000     0.0000     0.0000     0.0000 </r>
        <r>     3.4949     0.0206     0.1409     0.0469     0.1335     0.0000     0.0000     0.0000     0.0000     0.0000 </r>
        <r>     3.5760     0.0195     0.0734     0.0297     0.0715     0.0000     0.0000     0.0000     0.0000     0.0000 </r>
        <r>     3.6570     0.0061     0.0217     0.0110     0.0174     0.0000     0.0000     0.0000     0.0000     0.0000 </r>
        <r>     3.7380     0.0052     0.0476     0.0250     0.0281     0.0000     0.0000     0.0000     0.0000     0.0000 </r>
        <r>     3.8190     0.0221     0.0801     0.0501     0.0535     0.0000     0.0000     0.0000     0.0000     0.0000 </r>
        <r>     3.9000     0.0321     0.0436     0.0453     0.0324     0.0000     0.0000     0.0000     0.0000     0.0000 </r>
        <r>     3.9811     0.0144     0.0084     0.0176     0.0061     0.0000     0.0000     0.0000     0.0000     0.0000 </r>
        <r>     4.0621     0.0020     0.0124     0.0110     0.0038     0.0000     0.0000     0.0000     0.0000     0.0000 </r>
        <r>     4.1431     0.0012     0.0507     0.0275     0.0290     0.0000     0.0000     0.0000     0.0000     0.0000 </r>
        <r>     4.2241     0.0083     0.0874     0.0346     0.0791     0.0000     0.0000     0.0000     0.0000     0.0000 </r>
        <r>     4.3052     0.0204     0.0673     0.0306     0.0755     0.0000     0.0000     0.0000     0.0000     0.0000 </r>
        <r>     4.3862     0.0165     0.0265     0.0187     0.0271     0.0000     0.0000     0.0000     0.0000     0.0000 </r>
        <r>     4.4672     0.0090     0.0175     0.0169     0.0089     0.0000     0.0000     0.0000     0.0000     0.0000 </r>
        <r>     4.5482     0.0141     0.0470     0.0435     0.0219     0.0000     0.0000     0.0000     0.0000     0.0000 </r>
        <r>     4.6292     0.0127     0.0957     0.0727     0.0712     0.0000     0.0000     0.0000     0.0000     0.0000 </r>
        <r>     4.7103     0.0117     0.1575     0.1196     0.1501     0.0000     0.0000     0.0000     0.0000     0.0000 </r>
        <r>     4.7913     0.0223     0.1407     0.1452     0.1394     0.0000     0.0000     0.0000     0.0000     0.0000 </r>
        <r>     4.8723     0.0173     0.0883     0.1123     0.0826     0.0000     0.0000     0.0000     0.0000     0.0000 </r>
        <r>     4.9533     0.0044     0.0806     0.0876     0.0701     0.0000     0.0000     0.0000     0.0000     0.0000 </r>
        <r>     5.0344     0.0011     0.0792     0.0786     0.0882     0.0000     0.0000     0.0000     0.0000     0.0000 </r>
        <r>     5.1154     0.0006     0.0648     0.0517     0.0821     0.0000     0.0000     0.0000     0.0000     0.0000 </r>
        <r>     5.1964     0.0006     0.0886     0.0425     0.0897     0.0000     0.0000     0.0000     0.0000     0.0000 </r>
        <r>     5.2774     0.0038     0.1157     0.0659     0.0910     0.0000     0.0000     0.0000     0.0000     0.0000 </r>
        <r>     5.3584     0.0102     0.1005     0.0844     0.0511     0.0000     0.0000     0.0000     0.0000     0.0000 </r>
        <r>     5.4395     0.0130     0.0869     0.0926     0.0554     0.0000     0.0000     0.0000     0.0000     0.0000 </r>
        <r>     5.5205     0.0141     0.0694     0.1023     0.0598     0.0000     0.0000     0.0000     0.0000     0.0000 </r>
        <r>     5.6015     0.0118     0.0843     0.1158     0.0873     0.0000     0.0000     0.0000     0.0000     0.0000 </r>
        <r>     5.6825     0.0046     0.1304     0.1000     0.1481     0.0000     0.0000     0.0000     0.0000     0.0000 </r>
        <r>     5.7635     0.0006     0.1397     0.0980     0.1263     0.0000     0.0000     0.0000     0.0000     0.0000 </r>
        <r>     5.8446     0.0000     0.2009     0.1894     0.1549     0.0000     0.0000     0.0000     0.0000     0.0000 </r>
        <r>     5.9256     0.0000     0.2388     0.2379     0.2030     0.0000     0.0000     0.0000     0.0000     0.0000 </r>
        <r>     6.0066     0.0000     0.1143     0.1143     0.1032     0.0000     0.0000     0.0000     0.0000     0.0000 </r>
        <r>     6.0876     0.0000     0.0181     0.0181     0.0169     0.0000     0.0000     0.0000     0.0000     0.0000 </r>
        <r>     6.1687     0.0000     0.0009     0.0009     0.0008     0.0000     0.0000     0.0000     0.0000     0.0000 </r>
        <r>     6.2497     0.0001     0.0000     0.0001     0.0000     0.0000     0.0000     0.0000     0.0000     0.0000 </r>
        <r>     6.3307     0.0020     0.0000     0.0016     0.0000     0.0000     0.0000     0.0000     0.0000     0.0000 </r>
        <r>     6.4117     0.0146     0.0000     0.0120     0.0000     0.0000     0.0000     0.0000     0.0000     0.0000 </r>
        <r>     6.4927     0.0462     0.0000     0.0367     0.0000     0.0000     0.0000     0.0000     0.0000     0.0000 </r>
        <r>     6.5738     0.1002     0.0002     0.0751     0.0002     0.0000     0.0000     0.0000     0.0000     0.0000 </r>
        <r>     6.6548     0.1348     0.0005     0.0984     0.0005     0.0000     0.0000     0.0000     0.0000     0.0000 </r>
        <r>     6.7358     0.0963     0.0008     0.0699     0.0008     0.0000     0.0000     0.0000     0.0000     0.0000 </r>
        <r>     6.8168     0.0720     0.0015     0.0564     0.0015     0.0000     0.0000     0.0000     0.0000     0.0000 </r>
        <r>     6.8979     0.0729     0.0020     0.0598     0.0022     0.0000     0.0000     0.0000     0.0000     0.0000 </r>
        <r>     6.9789     0.0516     0.0013     0.0390     0.0030     0.0000     0.0000     0.0000     0.0000     0.0000 </r>
        <r>     7.0599     0.0428     0.0014     0.0256     0.0088     0.0000     0.0000     0.0000     0.0000     0.0000 </r>
        <r>     7.1409     0.0481     0.0032     0.0331     0.0131     0.0000     0.0000     0.0000     0.0000     0.0000 </r>
        <r>     7.2219     0.0382     0.0031     0.0375     0.0072     0.0000     0.0000     0.0000     0.0000     0.0000 </r>
        <r>     7.3030     0.0310     0.0013     0.0233     0.0024     0.0000     0.0000     0.0000     0.0000     0.0000 </r>
        <r>     7.3840     0.0680     0.0024     0.0109     0.0070     0.0000     0.0000     0.0000     0.0000     0.0000 </r>
        <r>     7.4650     0.1409     0.0069     0.0130     0.0178     0.0000     0.0000     0.0000     0.0000     0.0000 </r>
        <r>     7.5460     0.1448     0.0098     0.0299     0.0178     0.0000     0.0000     0.0000     0.0000     0.0000 </r>
        <r>     7.6271     0.0985     0.0073     0.0364     0.0091     0.0000     0.0000     0.0000     0.0000     0.0000 </r>
        <r>     7.7081     0.0655     0.0043     0.0180     0.0047     0.0000     0.0000     0.0000     0.0000     0.0000 </r>
        <r>     7.7891     0.0562     0.0040     0.0084     0.0070     0.0000     0.0000     0.0000     0.0000     0.0000 </r>
        <r>     7.8701     0.0735     0.0061     0.0176     0.0168     0.0000     0.0000     0.0000     0.0000     0.0000 </r>
        <r>     7.9511     0.0704     0.0093     0.0379     0.0208     0.0000     0.0000     0.0000     0.0000     0.0000 </r>
        <r>     8.0322     0.0619     0.0104     0.0459     0.0142     0.0000     0.0000     0.0000     0.0000     0.0000 </r>
        <r>     8.1132     0.0388     0.0060     0.0224     0.0064     0.0000     0.0000     0.0000     0.0000     0.0000 </r>
        <r>     8.1942     0.0288     0.0051     0.0122     0.0060     0.0000     0.0000     0.0000     0.0000     0.0000 </r>
        <r>     8.2752     0.0445     0.0109     0.0354     0.0180     0.0000     0.0000     0.0000     0.0000     0.0000 </r>
        <r>     8.3562     0.0488     0.0461     0.0839     0.0605     0.0000     0.0000     0.0000     0.0000     0.0000 </r>
        <r>     8.4373     0.0504     0.1436     0.1607     0.1450     0.0000     0.0000     0.0000     0.0000     0.0000 </r>
        <r>     8.5183     0.0409     0.1793     0.1828     0.1591     0.0000     0.0000     0.0000     0.0000     0.0000 </r>
        <r>     8.5993     0.0322     0.1109     0.1141     0.1041     0.0000     0.0000     0.0000     0.0000     0.0000 </r>
        <r>     8.6803     0.0376     0.0746     0.0581     0.0979     0.0000     0.0000     0.0000     0.0000     0.0000 </r>
        <r>     8.7614     0.0441     0.0858     0.0460     0.1215     0.0000     0.0000     0.0000     0.0000     0.0000 </r>
        <r>     8.8424     0.0566     0.0676     0.0447     0.1225     0.0000     0.0000     0.0000     0.0000     0.0000 </r>
        <r>     8.9234     0.0750     0.0400     0.0337     0.1043     0.0000     0.0000     0.0000     0.0000     0.0000 </r>
        <r>     9.0044     0.0575     0.0382     0.0351     0.0692     0.0000     0.0000     0.0000     0.0000     0.0000 </r>
        <r>     9.0854     0.0218     0.0452     0.0442     0.0424     0.0000     0.0000     0.0000     0.0000     0.0000 </r>
        <r>     9.1665     0.0672     0.0459     0.0457     0.0473     0.0000     0.0000     0.0000     0.0000     0.0000 </r>
        <r>     9.2475     0.2403     0.0659     0.0634     0.0811     0.0000     0.0000     0.0000     0.0000     0.0000 </r>
        <r>     9.3285     0.2720     0.1106     0.0930     0.1232     0.0000     0.0000     0.0000     0.0000     0.0000 </r>
        <r>     9.4095     0.1117     0.1437     0.1063     0.1344     0.0000     0.0000     0.0000     0.0000     0.0000 </r>
        <r>     9.4906     0.0823     0.1039     0.0821     0.0845     0.0000     0.0000     0.0000     0.0000     0.0000 </r>
        <r>     9.5716     0.1679     0.0344     0.0361     0.0260     0.0000     0.0000     0.0000     0.0000     0.0000 </r>
        <r>     9.6526     0.1896     0.0092     0.0158     0.0118     0.0000     0.0000     0.0000     0.0000     0.0000 </r>
        <r>     9.7336     0.1273     0.0079     0.0103     0.0250     0.0000     0.0000     0.0000     0.0000     0.0000 </r>
        <r>     9.8146     0.0531     0.0056     0.0058     0.0263     0.0000     0.0000     0.0000     0.0000     0.0000 </r>
        <r>     9.8957     0.0107     0.0073     0.0067     0.0102     0.0000     0.0000     0.0000     0.0000     0.0000 </r>
        <r>     9.9767     0.0082     0.0269     0.0236     0.0085     0.0000     0.0000     0.0000     0.0000     0.0000 </r>
        <r>    10.0577     0.0200     0.0388     0.0347     0.0142     0.0000     0.0000     0.0000     0.0000     0.0000 </r>
        <r>    10.1387     0.0548     0.0268     0.0317     0.0169     0.0000     0.0000     0.0000     0.0000     0.0000 </r>
        <r>    10.2197     0.1022     0.0386     0.0383     0.0403     0.0000     0.0000     0.0000     0.0000     0.0000 </r>
        <r>    10.3008     0.0897     0.0451     0.0261     0.0617     0.0000     0.0000     0.0000     0.0000     0.0000 </r>
        <r>    10.3818     0.0777     0.0232     0.0127     0.0512     0.0000     0.0000     0.0000     0.0000     0.0000 </r>
        <r>    10.4628     0.0487     0.0078     0.0064     0.0222     0.0000     0.0000     0.0000     0.0000     0.0000 </r>
        <r>    10.5438     0.0117     0.0035     0.0034     0.0038     0.0000     0.0000     0.0000     0.0000     0.0000 </r>
        <r>    10.6249     0.0112     0.0138     0.0138     0.0010     0.0000     0.0000     0.0000     0.0000     0.0000 </r>
[...]
       </set>
       <set comment="band 5">
        <r>  0.0531  0.0009  0.0393  0.0009  0.0000  0.0000  0.0000  0.0000  0.0000 </r>
        <r>  0.0531  0.0009  0.0393  0.0009  0.0000  0.0000  0.0000  0.0000  0.0000 </r>
       </set>
       <set comment="band 6">
        <r>  0.0241  0.0363  0.0138  0.0363  0.0000  0.0000  0.0000  0.0000  0.0000 </r>
        <r>  0.0241  0.0363  0.0138  0.0363  0.0000  0.0000  0.0000  0.0000  0.0000 </r>
       </set>
       <set comment="band 7">
        <r>  0.0000  0.0800  0.0000  0.0800  0.0000  0.0000  0.0000  0.0000  0.0000 </r>
        <r>  0.0000  0.0800  0.0000  0.0800  0.0000  0.0000  0.0000  0.0000  0.0000 </r>
       </set>
       <set comment="band 8">
        <r>  0.0326  0.0000  0.1048  0.0000  0.0000  0.0000  0.0000  0.0000  0.0000 </r>
        <r>  0.0326  0.0000  0.1048  0.0000  0.0000  0.0000  0.0000  0.0000  0.0000 </r>
       </set>
      </set>
      <set comment="kpoint 31">
       <set comment="band 1">
        <r>  0.2142  0.0050  0.0050  0.0234  0.0000  0.0000  0.0000  0.0000  0.0000 </r>
        <r>  0.2142  0.0050  0.0050  0.0234  0.0000  0.0000  0.0000  0.0000  0.0000 </r>
       </set>
       <set comment="band 2">
        <r>  0.1839  0.0058  0.0058  0.0449  0.0000  0.0000  0.0000  0.0000  0.0000 </r>
        <r>  0.1839  0.0058  0.0058  0.0449  0.0000  0.0000  0.0000  0.0000  0.0000 </r>
       </set>
       <set comment="band 3">
        <r>  0.0000  0.0570  0.0570  0.0435  0.0000  0.0000  0.0000  0.0000  0.0000 </r>
        <r>  0.0000  0.0570  0.0570  0.0435  0.0000  0.0000  0.0000  0.0000  0.0000 </r>
       </set>
       <set comment="band 4">
        <r>  0.0000  0.1015  0.1015  0.0000  0.0000  0.0000  0.0000  0.0000  0.0000 </r>
        <r>  0.0000  0.1015  0.1015  0.0000  0.0000  0.0000  0.0000  0.0000  0.0000 </r>
       </set>
       <set comment="band 5">
        <r>  0.0531  0.0009  0.0009  0.0393  0.0000  0.0000  0.0000  0.0000  0.0000 </r>
        <r>  0.0531  0.0009  0.0009  0.0393  0.0000  0.0000  0.0000  0.0000  0.0000 </r>
       </set>
       <set comment="band 6">
        <r>  0.0241  0.0363  0.0363  0.0138  0.0000  0.0000  0.0000  0.0000  0.0000 </r>
        <r>  0.0241  0.0363  0.0363  0.0138  0.0000  0.0000  0.0000  0.0000  0.0000 </r>
       </set>
       <set comment="band 7">
        <r>  0.0000  0.0800  0.0800  0.0000  0.0000  0.0000  0.0000  0.0000  0.0000 </r>
        <r>  0.0000  0.0800  0.0800  0.0000  0.0000  0.0000  0.0000  0.0000  0.0000 </r>
       </set>
       <set comment="band 8">
        <r>  0.0326  0.0000  0.0000  0.1048  0.0000  0.0000  0.0000  0.0000  0.0000 </r>
        <r>  0.0326  0.0000  0.0000  0.1048  0.0000  0.0000  0.0000  0.0000  0.0000 </r>
       </set>
      </set>
      <set comment="kpoint 32">
       <set comment="band 1">
        <r>  0.2150  0.0081  0.0081  0.0122  0.0000  0.0000  0.0000  0.0000  0.0000 </r>
        <r>  0.2150  0.0081  0.0081  0.0122  0.0000  0.0000  0.0000  0.0000  0.0000 </r>
       </set>
       <set comment="band 2">
        <r>  0.1762  0.0102  0.0102  0.0437  0.0000  0.0000  0.0000  0.0000  0.0000 </r>
        <r>  0.1762  0.0102  0.0102  0.0437  0.0000  0.0000  0.0000  0.0000  0.0000 </r>
       </set>
       <set comment="band 3">
        <r>  0.0037  0.0467  0.0467  0.0601  0.0000  0.0000  0.0000  0.0000  0.0000 </r>
        <r>  0.0037  0.0467  0.0467  0.0601  0.0000  0.0000  0.0000  0.0000  0.0000 </r>
       </set>
       <set comment="band 4">
        <r>  0.0000  0.1028  0.1028  0.0000  0.0000  0.0000  0.0000  0.0000  0.0000 </r>
        <r>  0.0000  0.1028  0.1028  0.0000  0.0000  0.0000  0.0000  0.0000  0.0000 </r>
       </set>
       <set comment="band 5">
        <r>  0.0547  0.0014  0.0014  0.0434  0.0000  0.0000  0.0000  0.0000  0.0000 </r>
        <r>  0.0547  0.0014  0.0014  0.0434  0.0000  0.0000  0.0000  0.0000  0.0000 </r>
       </set>
       <set comment="band 6">
        <r>  0.0064  0.0381  0.0381  0.0008  0.0000  0.0000  0.0000  0.0000  0.0000 </r>
        <r>  0.0064  0.0381  0.0381  0.0008  0.0000  0.0000  0.0000  0.0000  0.0000 </r>
       </set>
       <set comment="band 7">
        <r>  0.0000  0.0771  0.0771  0.0000  0.0000  0.0000  0.0000  0.0000  0.0000 </r>
        <r>  0.0000  0.0771  0.0771  0.0000  0.0000  0.0000  0.0000  0.0000  0.0000 </r>
       </set>
       <set comment="band 8">
        <r>  0.0449  0.0041  0.0041  0.1267  0.0000  0.0000  0.0000  0.0000  0.0000 </r>
        <r>  0.0449  0.0041  0.0041  0.1267  0.0000  0.0000  0.0000  0.0000  0.0000 </r>
       </set>
      </set>
      <set comment="kpoint 33">
       <set comment="band 1">
        <r>  0.2120  0.0093  0.0093  0.0055  0.0000  0.0000  0.0000  0.0000  0.0000 </r>
        <r>  0.2120  0.0093  0.0093  0.0055  0.0000  0.0000  0.0000  0.0000  0.0000 </r>
       </set>
       <set comment="band 2">
        <r>  0.1663  0.0157  0.0157  0.0421  0.0000  0.0000  0.0000  0.0000  0.0000 </r>
        <r>  0.1663  0.0157  0.0157  0.0421  0.0000  0.0000  0.0000  0.0000  0.0000 </r>
       </set>
       <set comment="band 3">
        <r>  0.0098  0.0402  0.0402  0.0723  0.0000  0.0000  0.0000  0.0000  0.0000 </r>
        <r>  0.0098  0.0402  0.0402  0.0723  0.0000  0.0000  0.0000  0.0000  0.0000 </r>
       </set>
       <set comment="band 4">
        <r>  0.0000  0.1047  0.1047  0.0000  0.0000  0.0000  0.0000  0.0000  0.0000 </r>
        <r>  0.0000  0.1047  0.1047  0.0000  0.0000  0.0000  0.0000  0.0000  0.0000 </r>
       </set>
       <set comment="band 5">
        <r>  0.0580  0.0018  0.0018  0.0500  0.0000  0.0000  0.0000  0.0000  0.0000 </r>
        <r>  0.0580  0.0018  0.0018  0.0500  0.0000  0.0000  0.0000  0.0000  0.0000 </r>
       </set>
       <set comment="band 6">
        <r>  0.0000  0.0757  0.0757  0.0000  0.0000  0.0000  0.0000  0.0000  0.0000 </r>
        <r>  0.0000  0.0757  0.0757  0.0000  0.0000  0.0000  0.0000  0.0000  0.0000 </r>
       </set>
       <set comment="band 7">
        <r>  0.0235  0.0007  0.0007  0.0898  0.0000  0.0000  0.0000  0.0000  0.0000 </r>
        <r>  0.0235  0.0007  0.0007  0.0898  0.0000  0.0000  0.0000  0.0000  0.0000 </r>
       </set>
       <set comment="band 8">
        <r>  0.0723  0.0530  0.0530  0.0332  0.0000  0.0000  0.0000  0.0000  0.0000 </r>
        <r>  0.0723  0.0530  0.0530  0.0332  0.0000  0.0000  0.0000  0.0000  0.0000 </r>
       </set>
      </set>
      <set comment="kpoint 34">
       <set comment="band 1">
        <r>  0.2101  0.0086  0.0086  0.0023  0.0000  0.0000  0.0000  0.0000  0.0000 </r>
        <r>  0.2101  0.0086  0.0086  0.0023  0.0000  0.0000  0.0000  0.0000  0.0000 </r>
       </set>
       <set comment="band 2">
        <r>  0.1544  0.0225  0.0225  0.0403  0.0000  0.0000  0.0000  0.0000  0.0000 </r>
        <r>  0.1544  0.0225  0.0225  0.0403  0.0000  0.0000  0.0000  0.0000  0.0000 </r>
       </set>
       <set comment="band 3">
        <r>  0.0136  0.0368  0.0368  0.0824  0.0000  0.0000  0.0000  0.0000  0.0000 </r>
        <r>  0.0136  0.0368  0.0368  0.0824  0.0000  0.0000  0.0000  0.0000  0.0000 </r>
       </set>
       <set comment="band 4">
        <r>  0.0000  0.1071  0.1071  0.0000  0.0000  0.0000  0.0000  0.0000  0.0000 </r>
        <r>  0.0000  0.1071  0.1071  0.0000  0.0000  0.0000  0.0000  0.0000  0.0000 </r>
       </set>
       <set comment="band 5">
        <r>  0.0651  0.0017  0.0017  0.0609  0.0000  0.0000  0.0000  0.0000  0.0000 </r>
        <r>  0.0651  0.0017  0.0017  0.0609  0.0000  0.0000  0.0000  0.0000  0.0000 </r>
       </set>
       <set comment="band 6">
        <r>  0.0000  0.0753  0.0753  0.0000  0.0000  0.0000  0.0000  0.0000  0.0000 </r>
        <r>  0.0000  0.0753  0.0753  0.0000  0.0000  0.0000  0.0000  0.0000  0.0000 </r>
       </set>
       <set comment="band 7">
        <r>  0.0307  0.0006  0.0006  0.1067  0.0000  0.0000  0.0000  0.0000  0.0000 </r>
        <r>  0.0307  0.0006  0.0006  0.1067  0.0000  0.0000  0.0000  0.0000  0.0000 </r>
       </set>
       <set comment="band 8">
        <r>  0.0757  0.0474  0.0474  0.0249  0.0000  0.0000  0.0000  0.0000  0.0000 </r>
        <r>  0.0757  0.0474  0.0474  0.0249  0.0000  0.0000  0.0000  0.0000  0.0000 </r>
       </set>
      </set>
      <set comment="kpoint 35">
       <set comment="band 1">
        <r>  0.2096  0.0069  0.0069  0.0009  0.0000  0.0000  0.0000  0.0000  0.0000 </r>
        <r>  0.2096  0.0069  0.0069  0.0009  0.0000  0.0000  0.0000  0.0000  0.0000 </r>
       </set>
       <set comment="band 2">
        <r>  0.1398  0.0305  0.0305  0.0379  0.0000  0.0000  0.0000  0.0000  0.0000 </r>
        <r>  0.1398  0.0305  0.0305  0.0379  0.0000  0.0000  0.0000  0.0000  0.0000 </r>
       </set>
       <set comment="band 3">
        <r>  0.0140  0.0348  0.0348  0.0926  0.0000  0.0000  0.0000  0.0000  0.0000 </r>
        <r>  0.0140  0.0348  0.0348  0.0926  0.0000  0.0000  0.0000  0.0000  0.0000 </r>
       </set>
       <set comment="band 4">
        <r>  0.0000  0.1094  0.1094  0.0000  0.0000  0.0000  0.0000  0.0000  0.0000 </r>
        <r>  0.0000  0.1094  0.1094  0.0000  0.0000  0.0000  0.0000  0.0000  0.0000 </r>
       </set>
       <set comment="band 5">
        <r>  0.0785  0.0011  0.0011  0.0765  0.0000  0.0000  0.0000  0.0000  0.0000 </r>
        <r>  0.0785  0.0011  0.0011  0.0765  0.0000  0.0000  0.0000  0.0000  0.0000 </r>
       </set>
       <set comment="band 6">
        <r>  0.0000  0.0754  0.0754  0.0000  0.0000  0.0000  0.0000  0.0000  0.0000 </r>
        <r>  0.0000  0.0754  0.0754  0.0000  0.0000  0.0000  0.0000  0.0000  0.0000 </r>
       </set>
       <set comment="band 7">
        <r>  0.0320  0.0037  0.0037  0.1086  0.0000  0.0000  0.0000  0.0000  0.0000 </r>
        <r>  0.0320  0.0037  0.0037  0.1086  0.0000  0.0000  0.0000  0.0000  0.0000 </r>
       </set>
       <set comment="band 8">
        <r>  0.0726  0.0449  0.0449  0.0122  0.0000  0.0000  0.0000  0.0000  0.0000 </r>
        <r>  0.0726  0.0449  0.0449  0.0122  0.0000  0.0000  0.0000  0.0000  0.0000 </r>
       </set>
      </set>
      <set comment="kpoint 36">
       <set comment="band 1">
        <r>  0.2105  0.0048  0.0048  0.0003  0.0000  0.0000  0.0000  0.0000  0.0000 </r>
        <r>  0.2105  0.0048  0.0048  0.0003  0.0000  0.0000  0.0000  0.0000  0.0000 </r>
       </set>
       <set comment="band 2">
        <r>  0.1224  0.0399  0.0399  0.0349  0.0000  0.0000  0.0000  0.0000  0.0000 </r>
        <r>  0.1224  0.0399  0.0399  0.0349  0.0000  0.0000  0.0000  0.0000  0.0000 </r>
       </set>
       <set comment="band 3">
        <r>  0.0116  0.0330  0.0330  0.1062  0.0000  0.0000  0.0000  0.0000  0.0000 </r>
        <r>  0.0116  0.0330  0.0330  0.1062  0.0000  0.0000  0.0000  0.0000  0.0000 </r>
       </set>
       <set comment="band 4">
        <r>  0.0000  0.1116  0.1116  0.0000  0.0000  0.0000  0.0000  0.0000  0.0000 </r>
        <r>  0.0000  0.1116  0.1116  0.0000  0.0000  0.0000  0.0000  0.0000  0.0000 </r>
       </set>
       <set comment="band 5">
        <r>  0.0958  0.0004  0.0004  0.0923  0.0000  0.0000  0.0000  0.0000  0.0000 </r>
        <r>  0.0958  0.0004  0.0004  0.0923  0.0000  0.0000  0.0000  0.0000  0.0000 </r>
       </set>
       <set comment="band 6">
        <r>  0.0000  0.0759  0.0759  0.0000  0.0000  0.0000  0.0000  0.0000  0.0000 </r>
        <r>  0.0000  0.0759  0.0759  0.0000  0.0000  0.0000  0.0000  0.0000  0.0000 </r>
       </set>
       <set comment="band 7">
        <r>  0.0303  0.0100  0.0100  0.1034  0.0000  0.0000  0.0000  0.0000  0.0000 </r>
        <r>  0.0303  0.0100  0.0100  0.1034  0.0000  0.0000  0.0000  0.0000  0.0000 </r>
       </set>
       <set comment="band 8">
        <r>  0.0716  0.0470  0.0470  0.0011  0.0000  0.0000  0.0000  0.0000  0.0000 </r>
        <r>  0.0716  0.0470  0.0470  0.0011  0.0000  0.0000  0.0000  0.0000  0.0000 </r>
       </set>
      </set>
      <set comment="kpoint 37">
       <set comment="band 1">
        <r>  0.2119  0.0029  0.0029  0.0001  0.0000  0.0000  0.0000  0.0000  0.0000 </r>
        <r>  0.2119  0.0029  0.0029  0.0001  0.0000  0.0000  0.0000  0.0000  0.0000 </r>
       </set>
       <set comment="band 2">
        <r>  0.1014  0.0514  0.0514  0.0310  0.0000  0.0000  0.0000  0.0000  0.0000 </r>
        <r>  0.1014  0.0514  0.0514  0.0310  0.0000  0.0000  0.0000  0.0000  0.0000 </r>
       </set>
       <set comment="band 3">
        <r>  0.0074  0.0294  0.0294  0.1259  0.0000  0.0000  0.0000  0.0000  0.0000 </r>
        <r>  0.0074  0.0294  0.0294  0.1259  0.0000  0.0000  0.0000  0.0000  0.0000 </r>
       </set>
       <set comment="band 4">
        <r>  0.0000  0.1121  0.1121  0.0000  0.0000  0.0000  0.0000  0.0000  0.0000 </r>
        <r>  0.0000  0.1121  0.1121  0.0000  0.0000  0.0000  0.0000  0.0000  0.0000 </r>
       </set>
       <set comment="band 5">
        <r>  0.1045  0.0002  0.0002  0.1017  0.0000  0.0000  0.0000  0.0000  0.0000 </r>
        <r>  0.1045  0.0002  0.0002  0.1017  0.0000  0.0000  0.0000  0.0000  0.0000 </r>
       </set>
       <set comment="band 6">
        <r>  0.0000  0.0761  0.0761  0.0000  0.0000  0.0000  0.0000  0.0000  0.0000 </r>
        <r>  0.0000  0.0761  0.0761  0.0000  0.0000  0.0000  0.0000  0.0000  0.0000 </r>
       </set>
       <set comment="band 7">
        <r>  0.0256  0.0211  0.0211  0.0892  0.0000  0.0000  0.0000  0.0000  0.0000 </r>
        <r>  0.0256  0.0211  0.0211  0.0892  0.0000  0.0000  0.0000  0.0000  0.0000 </r>
       </set>
       <set comment="band 8">
        <r>  0.1049  0.0545  0.0545  0.0036  0.0000  0.0000  0.0000  0.0000  0.0000 </r>
        <r>  0.1049  0.0545  0.0545  0.0036  0.0000  0.0000  0.0000  0.0000  0.0000 </r>
       </set>
      </set>
      <set comment="kpoint 38">
       <set comment="band 1">
        <r>  0.2131  0.0013  0.0013  0.0000  0.0000  0.0000  0.0000  0.0000  0.0000 </r>
        <r>  0.2131  0.0013  0.0013  0.0000  0.0000  0.0000  0.0000  0.0000  0.0000 </r>
       </set>
       <set comment="band 2">
        <r>  0.0735  0.0665  0.0665  0.0246  0.0000  0.0000  0.0000  0.0000  0.0000 </r>
        <r>  0.0735  0.0665  0.0665  0.0246  0.0000  0.0000  0.0000  0.0000  0.0000 </r>
       </set>
       <set comment="band 3">
        <r>  0.0030  0.0217  0.0217  0.1555  0.0000  0.0000  0.0000  0.0000  0.0000 </r>
        <r>  0.0030  0.0217  0.0217  0.1555  0.0000  0.0000  0.0000  0.0000  0.0000 </r>
       </set>
       <set comment="band 4">
        <r>  0.0000  0.1113  0.1113  0.0000  0.0000  0.0000  0.0000  0.0000  0.0000 </r>
        <r>  0.0000  0.1113  0.1113  0.0000  0.0000  0.0000  0.0000  0.0000  0.0000 </r>
       </set>
       <set comment="band 5">
        <r>  0.0000  0.0763  0.0763  0.0000  0.0000  0.0000  0.0000  0.0000  0.0000 </r>
        <r>  0.0000  0.0763  0.0763  0.0000  0.0000  0.0000  0.0000  0.0000  0.0000 </r>
       </set>
       <set comment="band 6">
        <r>  0.0920  0.0008  0.0008  0.1100  0.0000  0.0000  0.0000  0.0000  0.0000 </r>
        <r>  0.0920  0.0008  0.0008  0.1100  0.0000  0.0000  0.0000  0.0000  0.0000 </r>
       </set>
       <set comment="band 7">
        <r>  0.0167  0.0391  0.0391  0.0629  0.0000  0.0000  0.0000  0.0000  0.0000 </r>
        <r>  0.0167  0.0391  0.0391  0.0629  0.0000  0.0000  0.0000  0.0000  0.0000 </r>
       </set>
       <set comment="band 8">
        <r>  0.1824  0.0467  0.0467  0.0142  0.0000  0.0000  0.0000  0.0000  0.0000 </r>
        <r>  0.1824  0.0467  0.0467  0.0142  0.0000  0.0000  0.0000  0.0000  0.0000 </r>
       </set>
      </set>
      <set comment="kpoint 39">
       <set comment="band 1">
        <r>  0.2141  0.0003  0.0003  0.0000  0.0000  0.0000  0.0000  0.0000  0.0000 </r>
        <r>  0.2141  0.0003  0.0003  0.0000  0.0000  0.0000  0.0000  0.0000  0.0000 </r>
       </set>
       <set comment="band 2">
        <r>  0.0341  0.0888  0.0888  0.0130  0.0000  0.0000  0.0000  0.0000  0.0000 </r>
        <r>  0.0341  0.0888  0.0888  0.0130  0.0000  0.0000  0.0000  0.0000  0.0000 </r>
       </set>
       <set comment="band 3">
        <r>  0.0004  0.0088  0.0088  0.1951  0.0000  0.0000  0.0000  0.0000  0.0000 </r>
        <r>  0.0004  0.0088  0.0088  0.1951  0.0000  0.0000  0.0000  0.0000  0.0000 </r>
       </set>
       <set comment="band 4">
        <r>  0.0000  0.1101  0.1101  0.0000  0.0000  0.0000  0.0000  0.0000  0.0000 </r>
        <r>  0.0000  0.1101  0.1101  0.0000  0.0000  0.0000  0.0000  0.0000  0.0000 </r>
       </set>
       <set comment="band 5">
        <r>  0.0000  0.0766  0.0766  0.0000  0.0000  0.0000  0.0000  0.0000  0.0000 </r>
        <r>  0.0000  0.0766  0.0766  0.0000  0.0000  0.0000  0.0000  0.0000  0.0000 </r>
       </set>
       <set comment="band 6">
        <r>  0.0058  0.0629  0.0629  0.0243  0.0000  0.0000  0.0000  0.0000  0.0000 </r>
        <r>  0.0058  0.0629  0.0629  0.0243  0.0000  0.0000  0.0000  0.0000  0.0000 </r>
       </set>
       <set comment="band 7">
        <r>  0.0353  0.0032  0.0032  0.1324  0.0000  0.0000  0.0000  0.0000  0.0000 </r>
        <r>  0.0353  0.0032  0.0032  0.1324  0.0000  0.0000  0.0000  0.0000  0.0000 </r>
       </set>
       <set comment="band 8">
        <r>  0.2895  0.0189  0.0189  0.0075  0.0000  0.0000  0.0000  0.0000  0.0000 </r>
        <r>  0.2895  0.0189  0.0189  0.0075  0.0000  0.0000  0.0000  0.0000  0.0000 </r>
       </set>
      </set>
      <set comment="kpoint 40">
       <set comment="band 1">
        <r>  0.2144  0.0000  0.0000  0.0000  0.0000  0.0000  0.0000  0.0000  0.0000 </r>
        <r>  0.2144  0.0000  0.0000  0.0000  0.0000  0.0000  0.0000  0.0000  0.0000 </r>
       </set>
       <set comment="band 2">
        <r>  0.0000  0.0731  0.0731  0.0731  0.0000  0.0000  0.0000  0.0000  0.0000 </r>
        <r>  0.0000  0.0731  0.0731  0.0731  0.0000  0.0000  0.0000  0.0000  0.0000 </r>
       </set>
       <set comment="band 3">
        <r>  0.0000  0.0000  0.1096  0.1096  0.0000  0.0000  0.0000  0.0000  0.0000 </r>
        <r>  0.0000  0.0000  0.1096  0.1096  0.0000  0.0000  0.0000  0.0000  0.0000 </r>
       </set>
       <set comment="band 4">
        <r>  0.0000  0.1461  0.0365  0.0365  0.0000  0.0000  0.0000  0.0000  0.0000 </r>
        <r>  0.0000  0.1461  0.0365  0.0365  0.0000  0.0000  0.0000  0.0000  0.0000 </r>
       </set>
       <set comment="band 5">
        <r>  0.0000  0.0511  0.0511  0.0511  0.0000  0.0000  0.0000  0.0000  0.0000 </r>
        <r>  0.0000  0.0511  0.0511  0.0511  0.0000  0.0000  0.0000  0.0000  0.0000 </r>
       </set>
       <set comment="band 6">
        <r>  0.0000  0.0000  0.0767  0.0767  0.0000  0.0000  0.0000  0.0000  0.0000 </r>
        <r>  0.0000  0.0000  0.0767  0.0767  0.0000  0.0000  0.0000  0.0000  0.0000 </r>
       </set>
       <set comment="band 7">
        <r>  0.0000  0.1022  0.0255  0.0255  0.0000  0.0000  0.0000  0.0000  0.0000 </r>
        <r>  0.0000  0.1022  0.0255  0.0255  0.0000  0.0000  0.0000  0.0000  0.0000 </r>
       </set>
       <set comment="band 8">
        <r>  0.3607  0.0000  0.0000  0.0000  0.0000  0.0000  0.0000  0.0000  0.0000 </r>
        <r>  0.3607  0.0000  0.0000  0.0000  0.0000  0.0000  0.0000  0.0000  0.0000 </r>
       </set>
      </set>
     </set>
    </set>
   </array>
  </projected>
 </calculation>
 <structure name="finalpos" >
  <crystal>
   <varray name="basis" >
    <v>       2.71500000       2.71500000       0.00000000 </v>
    <v>       0.00000000       2.71500000       2.71500000 </v>
    <v>       2.71500000       0.00000000       2.71500000 </v>
   </varray>
   <i name="volume">     40.02575175 </i>
   <varray name="rec_basis" >
    <v>       0.18416206       0.18416206      -0.18416206 </v>
    <v>      -0.18416206       0.18416206       0.18416206 </v>
    <v>       0.18416206      -0.18416206       0.18416206 </v>
   </varray>
  </crystal>
  <varray name="positions" >
   <v>       0.00000000       0.00000000       0.00000000 </v>
   <v>       0.25000000       0.25000000       0.25000000 </v>
  </varray>
 </structure>
</modeling>
