 running on    4 total cores
 distrk:  each k-point on    4 cores,    1 groups
 distr:  one band on    1 cores,    4 groups
 using from now: INCAR     
 vasp.5.4.4.18Apr17-6-g9f103f2a35 (build Oct 19 2023 15:45:47) complex          
  
 POSCAR found type information on POSCAR  Si
 POSCAR found :  1 types and       2 ions
 scaLAPACK will be used
 LDA part: xc-table for Pade appr. of Perdew
 found WAVECAR, reading the header
 POSCAR, INCAR and KPOINTS ok, starting setup
 FFT: planning ...
 reading WAVECAR
 the WAVECAR file was read successfully
 initial charge from wavefunction
 entering main loop
       N       E                     dE             d eps       ncg     rms          ort
 gam= 0.000 g(H,U,f)=  0.650E-09 0.298E-09 0.416E-24 ort(H,U,f) = 0.000E+00 0.000E+00 0.000E+00
SDA:   1    -0.129605997074E+02   -0.12961E+02    0.00000E+00    64   0.948E-09 0.000E+00
 gam= 0.000 trial= 0.400  step= 0.111 mean= 0.400
 gam= 0.000 g(H,U,f)=  0.514E-09 0.274E-09 0.160E-24 ort(H,U,f) = 0.592E-09 0.286E-09 0.258E-24
CGA:   2    -0.129605997072E+02    0.21470E-09   -0.52472E-10    64   0.788E-09 0.878E-09
 gam= 0.000 trial= 0.386  step= 0.147 mean= 0.386
 final diagonalization
 Projection   1 done.
 Projection   2 done.
 Projection   3 done.
 Projection   4 done.
 Projection   5 done.
 Projection   6 done.
 Projection   7 done.
 Projection   8 done.
MLWF_WANNIER90: WARNING: wannier90.win seems to contains
a UNIT_CELL_CART block already, I hope it applies to the current setup ...

MLWF_WANNIER90: WARNING: wannier90.win seems to contains
a ATOMS_CART block already, I hope it applies to the current setup ...

MLWF_WANNIER90: WARNING: wannier90.win seems to contains
the MP_GRID tag already, I hope it applies to the current setup ...

MLWF_WANNIER90: WARNING: wannier90.win seems to contains
a KPOINTS block already, I hope it applies to the current setup ...

   1 F= -.12960600E+02 E0= -.12960600E+02  d E =-.125231E-13
 writing wavefunctions
