   2   2   0   0
  0.2001288E+02  0.3839590E-09  0.3839590E-09  0.3839590E-09  0.5000000E-15
  1.000000000000000E-004
  CAR 
 Si                                      
     18.26209667     -9.02028534  301      5.98644572      1.00000000
     -9.020  0.0000E+00  0.0000E+00
     -8.929  0.0000E+00  0.0000E+00
     -8.838  0.0000E+00  0.0000E+00
     -8.747  0.0000E+00  0.0000E+00
     -8.657  0.0000E+00  0.0000E+00
     -8.566  0.0000E+00  0.0000E+00
     -8.475  0.0000E+00  0.0000E+00
     -8.384  0.0000E+00  0.0000E+00
     -8.293  0.7216E-13  0.6562E-14
     -8.202  0.4258E-09  0.3873E-10
     -8.111  0.5004E-06  0.4554E-07
     -8.020  0.1193E-03  0.1090E-04
     -7.929  0.5951E-02  0.5521E-03
     -7.838  0.6491E-01  0.6455E-02
     -7.747  0.1627E+00  0.2125E-01
     -7.656  0.9631E-01  0.3001E-01
     -7.565  0.1325E-01  0.3121E-01
     -7.474  0.4040E-03  0.3125E-01
     -7.383  0.2606E-05  0.3125E-01
     -7.292  0.2640E-07  0.3125E-01
     -7.201  0.1811E-04  0.3125E-01
     -7.111  0.2916E-02  0.3152E-01
     -7.020  0.9921E-01  0.4054E-01
     -6.929  0.7474E+00  0.1085E+00
     -6.838  0.1307E+01  0.2274E+00
     -6.747  0.5585E+00  0.2782E+00
     -6.656  0.3238E+00  0.3076E+00
     -6.565  0.9133E+00  0.3907E+00
     -6.474  0.7199E+00  0.4562E+00
     -6.383  0.1329E+00  0.4682E+00
     -6.292  0.5493E-02  0.4687E+00
     -6.201  0.4843E-04  0.4687E+00
     -6.110  0.8776E-07  0.4687E+00
     -6.019  0.3299E-10  0.4688E+00
     -5.928  0.6151E-08  0.4688E+00
     -5.837  0.6959E-05  0.4688E+00
     -5.746  0.1598E-02  0.4689E+00
     -5.655  0.7687E-01  0.4759E+00
     -5.565  0.8094E+00  0.5495E+00
     -5.474  0.1961E+01  0.7278E+00
     -5.383  0.1125E+01  0.8301E+00
     -5.292  0.2394E+00  0.8519E+00
     -5.201  0.4881E+00  0.8963E+00
     -5.110  0.6057E+00  0.9514E+00
     -5.019  0.1796E+00  0.9677E+00
     -4.928  0.7354E-01  0.9744E+00
     -4.837  0.9808E+00  0.1064E+01
     -4.746  0.3549E+01  0.1386E+01
     -4.655  0.3024E+01  0.1661E+01
     -4.564  0.6036E+00  0.1716E+01
     -4.473  0.2706E-01  0.1719E+01
     -4.382  0.2594E-03  0.1719E+01
     -4.291  0.5117E-06  0.1719E+01
     -4.200  0.2028E-09  0.1719E+01
     -4.109  0.1648E-13  0.1719E+01
     -4.019  0.0000E+00  0.1719E+01
     -3.928  0.0000E+00  0.1719E+01
     -3.837  0.0000E+00  0.1719E+01
     -3.746  0.1145E-15  0.1719E+01
     -3.655  0.2709E-11  0.1719E+01
     -3.564  0.1163E-07  0.1719E+01
     -3.473  0.9971E-05  0.1719E+01
     -3.382  0.1744E-02  0.1719E+01
     -3.291  0.6428E-01  0.1725E+01
     -3.200  0.5265E+00  0.1773E+01
     -3.109  0.1111E+01  0.1874E+01
     -3.018  0.1470E+01  0.2007E+01
     -2.927  0.2020E+01  0.2191E+01
     -2.836  0.8954E+00  0.2273E+01
     -2.745  0.9343E-01  0.2281E+01
     -2.654  0.2143E-02  0.2281E+01
     -2.563  0.1079E-04  0.2281E+01
     -2.473  0.1605E-03  0.2281E+01
     -2.382  0.1133E-01  0.2282E+01
     -2.291  0.1730E+00  0.2298E+01
     -2.200  0.6006E+00  0.2353E+01
     -2.109  0.4913E+00  0.2397E+01
     -2.018  0.9404E-01  0.2406E+01
     -1.927  0.4038E-02  0.2406E+01
     -1.836  0.2691E-03  0.2406E+01
     -1.745  0.2500E-01  0.2409E+01
     -1.654  0.5751E+00  0.2461E+01
     -1.563  0.2969E+01  0.2731E+01
     -1.472  0.3589E+01  0.3057E+01
     -1.381  0.1022E+01  0.3150E+01
     -1.290  0.6612E-01  0.3156E+01
     -1.199  0.9251E-03  0.3156E+01
     -1.108  0.2685E-05  0.3156E+01
     -1.017  0.1599E-08  0.3156E+01
     -0.927  0.8362E-07  0.3156E+01
     -0.836  0.5440E-04  0.3156E+01
     -0.745  0.7252E-02  0.3157E+01
     -0.654  0.2052E+00  0.3176E+01
     -0.563  0.1294E+01  0.3293E+01
     -0.472  0.1903E+01  0.3466E+01
     -0.381  0.6603E+00  0.3526E+01
     -0.290  0.5241E-01  0.3531E+01
     -0.199  0.9056E-03  0.3531E+01
     -0.108  0.3261E-05  0.3531E+01
     -0.017  0.2378E-08  0.3531E+01
      0.074  0.3447E-12  0.3531E+01
      0.165  0.0000E+00  0.3531E+01
      0.256  0.0000E+00  0.3531E+01
      0.347  0.0000E+00  0.3531E+01
      0.438  0.0000E+00  0.3531E+01
      0.529  0.0000E+00  0.3531E+01
      0.619  0.0000E+00  0.3531E+01
      0.710  0.1772E-11  0.3531E+01
      0.801  0.8620E-08  0.3531E+01
      0.892  0.8376E-05  0.3531E+01
      0.983  0.1666E-02  0.3531E+01
      1.074  0.7130E-01  0.3538E+01
      1.165  0.7372E+00  0.3605E+01
      1.256  0.2335E+01  0.3817E+01
      1.347  0.3215E+01  0.4110E+01
      1.438  0.2883E+01  0.4372E+01
      1.529  0.1782E+01  0.4534E+01
      1.620  0.2676E+01  0.4777E+01
      1.711  0.4937E+01  0.5226E+01
      1.802  0.2389E+01  0.5443E+01
      1.893  0.2712E+00  0.5468E+01
      1.984  0.6888E-02  0.5469E+01
      2.075  0.1826E-03  0.5469E+01
      2.165  0.1195E-01  0.5470E+01
      2.256  0.2118E+00  0.5489E+01
      2.347  0.8498E+00  0.5566E+01
      2.438  0.8016E+00  0.5639E+01
      2.529  0.1774E+00  0.5655E+01
      2.620  0.8853E-02  0.5656E+01
      2.711  0.9641E-04  0.5656E+01
      2.802  0.6426E-03  0.5656E+01
      2.893  0.5131E-01  0.5661E+01
      2.984  0.8830E+00  0.5741E+01
      3.075  0.3443E+01  0.6054E+01
      3.166  0.3157E+01  0.6341E+01
      3.257  0.7074E+00  0.6406E+01
      3.348  0.5004E+00  0.6451E+01
      3.439  0.1751E+01  0.6611E+01
      3.530  0.1543E+01  0.6751E+01
      3.621  0.3188E+00  0.6780E+01
      3.711  0.1481E-01  0.6781E+01
      3.802  0.1616E-02  0.6781E+01
      3.893  0.7279E-01  0.6788E+01
      3.984  0.7996E+00  0.6861E+01
      4.075  0.2213E+01  0.7062E+01
      4.166  0.2249E+01  0.7266E+01
      4.257  0.1259E+01  0.7381E+01
      4.348  0.2640E+00  0.7405E+01
      4.439  0.1758E-01  0.7407E+01
      4.530  0.1498E+00  0.7420E+01
      4.621  0.1307E+01  0.7539E+01
      4.712  0.2638E+01  0.7779E+01
      4.803  0.1258E+01  0.7893E+01
      4.894  0.1387E+00  0.7906E+01
      4.985  0.3362E-02  0.7906E+01
      5.076  0.1714E-04  0.7906E+01
      5.167  0.6288E-05  0.7906E+01
      5.257  0.1032E-02  0.7906E+01
      5.348  0.3583E-01  0.7910E+01
      5.439  0.2754E+00  0.7935E+01
      5.530  0.4912E+00  0.7979E+01
      5.621  0.2069E+00  0.7998E+01
      5.712  0.2007E-01  0.8000E+01
      5.803  0.4264E-03  0.8000E+01
      5.894  0.1898E-05  0.8000E+01
      5.985  0.1715E-08  0.8000E+01
      6.076  0.3090E-12  0.8000E+01
      6.167  0.0000E+00  0.8000E+01
      6.258  0.2289E-14  0.8000E+01
      6.349  0.3142E-10  0.8000E+01
      6.440  0.8667E-07  0.8000E+01
      6.531  0.4796E-04  0.8000E+01
      6.622  0.5455E-02  0.8001E+01
      6.713  0.1323E+00  0.8013E+01
      6.803  0.7187E+00  0.8078E+01
      6.894  0.9130E+00  0.8161E+01
      6.985  0.2734E+00  0.8186E+01
      7.076  0.2350E-01  0.8188E+01
      7.167  0.1234E+00  0.8199E+01
      7.258  0.6983E+00  0.8263E+01
      7.349  0.9254E+00  0.8347E+01
      7.440  0.2907E+00  0.8373E+01
      7.531  0.1166E+00  0.8384E+01
      7.622  0.1269E+01  0.8499E+01
      7.713  0.3940E+01  0.8858E+01
      7.804  0.3263E+01  0.9154E+01
      7.895  0.9354E+00  0.9239E+01
      7.986  0.1124E+00  0.9250E+01
      8.077  0.5596E-02  0.9250E+01
      8.168  0.5789E-01  0.9255E+01
      8.259  0.5744E+00  0.9308E+01
      8.349  0.1314E+01  0.9427E+01
      8.440  0.7104E+00  0.9492E+01
      8.531  0.1080E+00  0.9502E+01
      8.622  0.3731E+00  0.9535E+01
      8.713  0.1658E+01  0.9686E+01
      8.804  0.1940E+01  0.9863E+01
      8.895  0.9007E+00  0.9945E+01
      8.986  0.2426E+00  0.9967E+01
      9.077  0.2293E-01  0.9969E+01
      9.168  0.1073E-02  0.9969E+01
      9.259  0.3029E-01  0.9972E+01
      9.350  0.3570E+00  0.1000E+02
      9.441  0.9682E+00  0.1009E+02
      9.532  0.7333E+00  0.1016E+02
      9.623  0.9050E+00  0.1024E+02
      9.714  0.1461E+01  0.1037E+02
      9.805  0.1897E+01  0.1055E+02
      9.895  0.2821E+01  0.1080E+02
      9.986  0.1324E+01  0.1092E+02
     10.077  0.1518E+00  0.1094E+02
     10.168  0.4130E-02  0.1094E+02
     10.259  0.7318E-04  0.1094E+02
     10.350  0.6491E-02  0.1094E+02
     10.441  0.1914E+00  0.1096E+02
     10.532  0.1257E+01  0.1107E+02
     10.623  0.2001E+01  0.1125E+02
     10.714  0.1845E+01  0.1142E+02
     10.805  0.3756E+01  0.1176E+02
     10.896  0.2799E+01  0.1202E+02
     10.987  0.4948E+00  0.1206E+02
     11.078  0.3423E-01  0.1206E+02
     11.169  0.3171E+00  0.1209E+02
     11.260  0.1543E+01  0.1223E+02
     11.351  0.1895E+01  0.1241E+02
     11.442  0.2018E+01  0.1259E+02
     11.532  0.3926E+01  0.1295E+02
     11.623  0.2325E+01  0.1316E+02
     11.714  0.3231E+00  0.1319E+02
     11.805  0.9994E-02  0.1319E+02
     11.896  0.6606E-04  0.1319E+02
     11.987  0.2518E-03  0.1319E+02
     12.078  0.2971E-01  0.1319E+02
     12.169  0.7486E+00  0.1326E+02
     12.260  0.4285E+01  0.1365E+02
     12.351  0.6645E+01  0.1425E+02
     12.442  0.5382E+01  0.1474E+02
     12.533  0.3019E+01  0.1502E+02
     12.624  0.1070E+01  0.1511E+02
     12.715  0.1846E+01  0.1528E+02
     12.806  0.1440E+01  0.1541E+02
     12.897  0.2655E+00  0.1544E+02
     12.988  0.1097E-01  0.1544E+02
     13.078  0.9671E-04  0.1544E+02
     13.169  0.5739E-06  0.1544E+02
     13.260  0.1663E-03  0.1544E+02
     13.351  0.1433E-01  0.1544E+02
     13.442  0.2654E+00  0.1546E+02
     13.533  0.1111E+01  0.1556E+02
     13.624  0.1093E+01  0.1566E+02
     13.715  0.2524E+00  0.1569E+02
     13.806  0.1316E-01  0.1569E+02
     13.897  0.5786E-03  0.1569E+02
     13.988  0.2224E-01  0.1569E+02
     14.079  0.2505E+00  0.1571E+02
     14.170  0.6478E+00  0.1577E+02
     14.261  0.3956E+00  0.1581E+02
     14.352  0.5618E-01  0.1581E+02
     14.443  0.1771E-02  0.1581E+02
     14.534  0.1182E-04  0.1581E+02
     14.624  0.1612E-07  0.1581E+02
     14.715  0.4399E-11  0.1581E+02
     14.806  0.3052E-15  0.1581E+02
     14.897  0.0000E+00  0.1581E+02
     14.988  0.0000E+00  0.1581E+02
     15.079  0.0000E+00  0.1581E+02
     15.170  0.0000E+00  0.1581E+02
     15.261  0.0000E+00  0.1581E+02
     15.352  0.0000E+00  0.1581E+02
     15.443  0.0000E+00  0.1581E+02
     15.534  0.0000E+00  0.1581E+02
     15.625  0.0000E+00  0.1581E+02
     15.716  0.0000E+00  0.1581E+02
     15.807  0.0000E+00  0.1581E+02
     15.898  0.0000E+00  0.1581E+02
     15.989  0.0000E+00  0.1581E+02
     16.080  0.0000E+00  0.1581E+02
     16.170  0.0000E+00  0.1581E+02
     16.261  0.0000E+00  0.1581E+02
     16.352  0.0000E+00  0.1581E+02
     16.443  0.4578E-15  0.1581E+02
     16.534  0.8251E-11  0.1581E+02
     16.625  0.2878E-07  0.1581E+02
     16.716  0.2017E-04  0.1581E+02
     16.807  0.2903E-02  0.1581E+02
     16.898  0.8885E-01  0.1582E+02
     16.989  0.6065E+00  0.1588E+02
     17.080  0.9664E+00  0.1596E+02
     17.171  0.3648E+00  0.1600E+02
     17.262  0.3170E-01  0.1600E+02
     17.353  0.6035E-03  0.1600E+02
     17.444  0.2410E-05  0.1600E+02
     17.535  0.1958E-08  0.1600E+02
     17.626  0.3179E-12  0.1600E+02
     17.716  0.0000E+00  0.1600E+02
     17.807  0.0000E+00  0.1600E+02
     17.898  0.0000E+00  0.1600E+02
     17.989  0.0000E+00  0.1600E+02
     18.080  0.0000E+00  0.1600E+02
     18.171  0.0000E+00  0.1600E+02
     18.262  0.0000E+00  0.1600E+02
