    2    2    1    1
  0.2001288E+02  0.3839590E-09  0.3839590E-09  0.3839590E-09  0.5000000E-15
  1.000000000000000E-004
  CAR 
 Si                                      
      8      8      8
 
  0.0000000E+00  0.0000000E+00  0.0000000E+00  0.1562500E-01
    1       -7.780177   1.000000
    2        5.475865   1.000000
    3        5.475865   1.000000
    4        5.475865   1.000000
    5        8.844314   0.000000
    6        8.844314   0.000000
    7        8.844314   0.000000
    8        9.888082   0.000000
 
  0.2500000E+00  0.0000000E+00  0.0000000E+00  0.1250000E+00
    1       -6.893380   1.000000
    2        1.212158   1.000000
    3        4.665194   1.000000
    4        4.665194   1.000000
    5        8.310698   0.000000
    6        9.845636   0.000000
    7        9.845636   0.000000
    8       13.532108   0.000000
 
  0.5000000E+00  0.0000000E+00  0.0000000E+00  0.6250000E-01
    1       -5.186556   1.000000
    2       -2.212379   1.000000
    3        4.166264   1.000000
    4        4.166264   1.000000
    5        7.792029   0.000000
    6        9.652089   0.000000
    7        9.652089   0.000000
    8       14.138633   0.000000
 
  0.2500000E+00  0.2500000E+00  0.0000000E+00  0.9375000E-01
    1       -6.579821   1.000000
    2        1.677951   1.000000
    3        3.430696   1.000000
    4        3.430697   1.000000
    5        7.275969   0.000000
    6        9.412427   0.000000
    7       12.275649   0.000000
    8       12.275651   0.000000
 
  0.5000000E+00  0.2500000E+00  0.0000000E+00  0.3750000E+00
    1       -4.756148   1.000000
    2       -1.551140   1.000000
    3        1.661550   1.000000
    4        3.069438   1.000000
    5        7.691037   0.000000
    6       10.787304   0.000000
    7       12.278164   0.000000
    8       12.426276   0.000000
 
 -0.2500000E+00  0.2500000E+00  0.0000000E+00  0.1875000E+00
    1       -5.508793   1.000000
    2       -0.538427   1.000000
    3        1.420116   1.000000
    4        4.041695   1.000000
    5        8.715274   0.000000
    6       11.267815   0.000000
    7       11.503192   0.000000
    8       12.699703   0.000000
 
  0.5000000E+00  0.5000000E+00  0.0000000E+00  0.4687500E-01
    1       -3.160035   1.000000
    2       -3.160035   1.000000
    3        2.343683   1.000000
    4        2.343684   1.000000
    5        6.818606   0.000000
    6        6.818606   0.000000
    7       17.014775   0.000000
    8       17.021988   0.000000
 
 -0.2500000E+00  0.5000000E+00  0.2500000E+00  0.9375000E-01
    1       -2.977143   1.000000
    2       -2.977143   1.000000
    3        1.300684   1.000000
    4        1.300684   1.000000
    5       10.558850   0.000000
    6       10.558850   0.000000
    7       11.496348   0.000000
    8       11.496348   0.000000
