       N       E                     dE             d eps       ncg     rms          ort
SDA:   1    -0.129605997074E+02   -0.12961E+02    0.00000E+00    64   0.948E-09 0.000E+00
CGA:   2    -0.129605997072E+02    0.21470E-09   -0.52472E-10    64   0.788E-09 0.878E-09
   1 F= -.12960600E+02 E0= -.12960600E+02  d E =-.125231E-13
