<?xml version="1.0" encoding="ISO-8859-1"?>
<modeling>
 <generator>
  <i name="program" type="string">vasp </i>
  <i name="version" type="string">5.4.4.18Apr17-6-g9f103f2a35  </i>
  <i name="subversion" type="string">(build Oct 19 2023 15:45:47) complex            parallel </i>
  <i name="platform" type="string">LinuxIFC </i>
  <i name="date" type="string">2023 12 27 </i>
  <i name="time" type="string">07:27:24 </i>
 </generator>
 <incar>
  <i type="string" name="SYSTEM"> Si</i>
  <i type="string" name="PREC">accurate</i>
  <i type="string" name="ALGO"> All</i>
  <i name="EDIFF">      0.00000001</i>
  <i type="int" name="ISIF">     2</i>
  <i type="int" name="ISYM">     3</i>
  <i name="ENCUT">    550.00000000</i>
  <i type="logical" name="LREAL"> F  </i>
  <i type="int" name="ISMEAR">     0</i>
  <i name="SIGMA">      0.10000000</i>
  <i type="logical" name="LCHARG"> F  </i>
  <v type="int" name="KPOINT_BSE">    -1     0     0     0</v>
  <i type="logical" name="LHFCALC"> T  </i>
  <i name="HFSCREEN">      0.20000000</i>
  <i type="logical" name="LWANNIER90"> T  </i>
 </incar>
 <structure name="primitive_cell" >
  <crystal>
   <varray name="basis" >
    <v>       2.71500000       2.71500000       0.00000000 </v>
    <v>       0.00000000       2.71500000       2.71500000 </v>
    <v>       2.71500000       0.00000000       2.71500000 </v>
   </varray>
   <i name="volume">     40.02575175 </i>
   <varray name="rec_basis" >
    <v>       0.18416206       0.18416206      -0.18416206 </v>
    <v>      -0.18416206       0.18416206       0.18416206 </v>
    <v>       0.18416206      -0.18416206       0.18416206 </v>
   </varray>
  </crystal>
  <varray name="positions" >
   <v>       0.00000000       0.00000000       0.00000000 </v>
   <v>       0.25000000       0.25000000       0.25000000 </v>
  </varray>
 </structure>
 <varray name="primitive_index" >
  <v type="int" >        1 </v>
  <v type="int" >        2 </v>
 </varray>
 <kpoints>
  <generation param="Gamma">
   <v type="int" name="divisions">       4        4        4 </v>
   <v name="usershift">      0.00000000       0.00000000       0.00000000 </v>
   <v name="genvec1">      0.25000000       0.00000000       0.00000000 </v>
   <v name="genvec2">      0.00000000       0.25000000       0.00000000 </v>
   <v name="genvec3">      0.00000000       0.00000000       0.25000000 </v>
   <v name="shift">      0.00000000       0.00000000       0.00000000 </v>
  </generation>
  <varray name="kpointlist" >
   <v>       0.00000000       0.00000000       0.00000000 </v>
   <v>       0.25000000       0.00000000       0.00000000 </v>
   <v>       0.50000000       0.00000000       0.00000000 </v>
   <v>       0.25000000       0.25000000       0.00000000 </v>
   <v>       0.50000000       0.25000000       0.00000000 </v>
   <v>      -0.25000000       0.25000000       0.00000000 </v>
   <v>       0.50000000       0.50000000       0.00000000 </v>
   <v>      -0.25000000       0.50000000       0.25000000 </v>
  </varray>
  <varray name="weights" >
   <v>       0.01562500 </v>
   <v>       0.12500000 </v>
   <v>       0.06250000 </v>
   <v>       0.09375000 </v>
   <v>       0.37500000 </v>
   <v>       0.18750000 </v>
   <v>       0.04687500 </v>
   <v>       0.09375000 </v>
  </varray>
 </kpoints>
 <parameters>
  <separator name="general" >
   <i type="string" name="SYSTEM">Si</i>
   <i type="logical" name="LCOMPAT"> F  </i>
  </separator>
  <separator name="electronic" >
   <i type="string" name="PREC">accura</i>
   <i name="ENMAX">    550.00000000</i>
   <i name="ENAUG">    322.06900000</i>
   <i name="EDIFF">      0.00000001</i>
   <i type="int" name="IALGO">    58</i>
   <i type="int" name="IWAVPR">    10</i>
   <i type="int" name="NBANDS">     8</i>
   <i name="NELECT">      8.00000000</i>
   <i type="int" name="TURBO">     0</i>
   <i type="int" name="IRESTART">     0</i>
   <i type="int" name="NREBOOT">     0</i>
   <i type="int" name="NMIN">     0</i>
   <i name="EREF">      0.00000000</i>
   <separator name="electronic smearing" >
    <i type="int" name="ISMEAR">     0</i>
    <i name="SIGMA">      0.10000000</i>
    <i name="KSPACING">      0.50000000</i>
    <i type="logical" name="KGAMMA"> T  </i>
   </separator>
   <separator name="electronic projectors" >
    <i type="logical" name="LREAL"> F  </i>
    <v name="ROPT">      0.00000000</v>
    <i type="int" name="LMAXPAW">  -100</i>
    <i type="int" name="LMAXMIX">     2</i>
    <i type="logical" name="NLSPLINE"> F  </i>
   </separator>
   <separator name="electronic startup" >
    <i type="int" name="ISTART">     1</i>
    <i type="int" name="ICHARG">     0</i>
    <i type="int" name="INIWAV">     1</i>
   </separator>
   <separator name="electronic spin" >
    <i type="int" name="ISPIN">     1</i>
    <i type="logical" name="LNONCOLLINEAR"> F  </i>
    <v name="MAGMOM">      1.00000000      1.00000000</v>
    <i name="NUPDOWN">     -1.00000000</i>
    <i type="logical" name="LSORBIT"> F  </i>
    <v name="SAXIS">      0.00000000      0.00000000      1.00000000</v>
    <i type="logical" name="LSPIRAL"> F  </i>
    <v name="QSPIRAL">      0.00000000      0.00000000      0.00000000</v>
    <i type="logical" name="LZEROZ"> F  </i>
   </separator>
   <separator name="electronic exchange-correlation" >
    <i type="logical" name="LASPH"> F  </i>
    <i type="logical" name="LMETAGGA"> F  </i>
   </separator>
   <separator name="electronic convergence" >
    <i type="int" name="NELM">    60</i>
    <i type="int" name="NELMDL">     0</i>
    <i type="int" name="NELMIN">     2</i>
    <i name="ENINI">    550.00000000</i>
    <separator name="electronic convergence detail" >
     <i type="logical" name="LDIAG"> T  </i>
     <i type="logical" name="LSUBROT"> F  </i>
     <i name="WEIMIN">      0.00000000</i>
     <i name="EBREAK">      0.00000000</i>
     <i name="DEPER">      0.30000000</i>
     <i type="int" name="NRMM">     4</i>
     <i name="TIME">      0.40000000</i>
    </separator>
   </separator>
   <separator name="electronic mixer" >
    <i name="AMIX">      0.40000000</i>
    <i name="BMIX">      1.00000000</i>
    <i name="AMIN">      0.10000000</i>
    <i name="AMIX_MAG">      1.60000000</i>
    <i name="BMIX_MAG">      1.00000000</i>
    <separator name="electronic mixer details" >
     <i type="int" name="IMIX">     4</i>
     <i type="logical" name="MIXFIRST"> F  </i>
     <i type="int" name="MAXMIX">   -45</i>
     <i name="WC">    100.00000000</i>
     <i type="int" name="INIMIX">     1</i>
     <i type="int" name="MIXPRE">     1</i>
     <i type="int" name="MREMOVE">     5</i>
    </separator>
   </separator>
   <separator name="electronic dipolcorrection" >
    <i type="logical" name="LDIPOL"> F  </i>
    <i type="logical" name="LMONO"> F  </i>
    <i type="int" name="IDIPOL">     0</i>
    <i name="EPSILON">      1.00000000</i>
    <v name="DIPOL">   -100.00000000   -100.00000000   -100.00000000</v>
    <i name="EFIELD">      0.00000000</i>
   </separator>
  </separator>
  <separator name="grids" >
   <i type="int" name="NGX">    30</i>
   <i type="int" name="NGY">    30</i>
   <i type="int" name="NGZ">    30</i>
   <i type="int" name="NGXF">    60</i>
   <i type="int" name="NGYF">    60</i>
   <i type="int" name="NGZF">    60</i>
   <i type="logical" name="ADDGRID"> F  </i>
  </separator>
  <separator name="ionic" >
   <i type="int" name="NSW">     0</i>
   <i type="int" name="IBRION">    -1</i>
   <i type="int" name="MDALGO">     0</i>
   <i type="int" name="ISIF">     2</i>
   <i name="PSTRESS">      0.00000000</i>
   <i name="EDIFFG">      0.00000010</i>
   <i type="int" name="NFREE">     0</i>
   <i name="POTIM">      0.50000000</i>
   <i name="SMASS">     -3.00000000</i>
   <i name="SCALEE">      1.00000000</i>
  </separator>
  <separator name="ionic md" >
   <i name="TEBEG">      0.00010000</i>
   <i name="TEEND">      0.00010000</i>
   <i type="int" name="NBLOCK">     1</i>
   <i type="int" name="KBLOCK">     1</i>
   <i type="int" name="NPACO">   256</i>
   <i name="APACO">     16.00000000</i>
  </separator>
  <separator name="symmetry" >
   <i type="int" name="ISYM">     3</i>
   <i name="SYMPREC">      0.00001000</i>
  </separator>
  <separator name="dos" >
   <i type="int" name="LORBIT">     0</i>
   <v name="RWIGS">     -1.00000000</v>
   <i type="int" name="NEDOS">   301</i>
   <i name="EMIN">     10.00000000</i>
   <i name="EMAX">    -10.00000000</i>
   <i name="EFERMI">      0.00000000</i>
  </separator>
  <separator name="writing" >
   <i type="int" name="NWRITE">     2</i>
   <i type="logical" name="LWAVE"> T  </i>
   <i type="logical" name="LDOWNSAMPLE"> F  </i>
   <i type="logical" name="LCHARG"> F  </i>
   <i type="logical" name="LPARD"> F  </i>
   <i type="logical" name="LVTOT"> F  </i>
   <i type="logical" name="LVHAR"> F  </i>
   <i type="logical" name="LELF"> F  </i>
   <i type="logical" name="LOPTICS"> F  </i>
   <v name="STM">      0.00000000      0.00000000      0.00000000      0.00000000      0.00000000      0.00000000      0.00000000</v>
  </separator>
  <separator name="performance" >
   <i type="int" name="NPAR">     4</i>
   <i type="int" name="NSIM">     4</i>
   <i type="int" name="NBLK">    -1</i>
   <i type="logical" name="LPLANE"> T  </i>
   <i type="logical" name="LSCALAPACK"> T  </i>
   <i type="logical" name="LSCAAWARE"> F  </i>
   <i type="logical" name="LSCALU"> F  </i>
   <i type="logical" name="LASYNC"> F  </i>
   <i type="logical" name="LORBITALREAL"> F  </i>
  </separator>
  <separator name="miscellaneous" >
   <i type="int" name="IDIOT">     3</i>
   <i type="int" name="ISPECIAL">     0</i>
   <i type="logical" name="LMUSIC"> F  </i>
   <v name="POMASS">     28.08500000</v>
   <v name="DARWINR">      0.00000000</v>
   <v name="DARWINV">      1.00000000</v>
   <i type="logical" name="LCORR"> T  </i>
  </separator>
  <i type="logical" name="GGA_COMPAT"> T  </i>
  <i type="logical" name="LBERRY"> F  </i>
  <i type="int" name="ICORELEVEL">     0</i>
  <i type="logical" name="LDAU"> F  </i>
  <i type="int" name="I_CONSTRAINED_M">     0</i>
  <separator name="electronic exchange-correlation" >
   <i type="string" name="GGA">--</i>
   <i type="int" name="VOSKOWN">     0</i>
   <i type="logical" name="LHFCALC"> T  </i>
   <i type="string" name="PRECFOCK">normal</i>
   <i type="logical" name="LSYMGRAD"> F  </i>
   <i type="logical" name="LHFONE"> F  </i>
   <i type="logical" name="LRHFCALC"> F  </i>
   <i type="logical" name="LTHOMAS"> F  </i>
   <i type="logical" name="LMODELHF"> F  </i>
   <i name="ENCUT4O">     -1.00000000</i>
   <i type="int" name="EXXOEP">     0</i>
   <i type="int" name="FOURORBIT">     0</i>
   <i name="AEXX">      0.25000000</i>
   <i name="HFALPHA">     -1.00000000</i>
   <i name="MCALPHA">      0.00000000</i>
   <i name="ALDAX">      0.75000000</i>
   <i name="AGGAX">      0.75000000</i>
   <i name="ALDAC">      1.00000000</i>
   <i name="AGGAC">      1.00000000</i>
   <i type="int" name="NKREDX">     1</i>
   <i type="int" name="NKREDY">     1</i>
   <i type="int" name="NKREDZ">     1</i>
   <i type="logical" name="SHIFTRED"> F  </i>
   <i type="logical" name="ODDONLY"> F  </i>
   <i type="logical" name="EVENONLY"> F  </i>
   <i type="int" name="LMAXFOCK">     4</i>
   <i type="int" name="NMAXFOCKAE">     1</i>
   <i type="logical" name="LFOCKAEDFT"> F  </i>
   <i name="HFSCREEN">      0.20000000</i>
   <i name="HFSCREENC">      0.20000000</i>
   <i type="int" name="NBANDSGWLOW">     1</i>
  </separator>
  <separator name="vdW DFT" >
   <i type="logical" name="LUSE_VDW"> F  </i>
   <i name="Zab_VDW">     -0.84910000</i>
   <i name="PARAM1">      0.12340000</i>
   <i name="PARAM2">      1.00000000</i>
   <i name="PARAM3">      0.00000000</i>
  </separator>
  <separator name="model GW" >
   <i type="int" name="MODEL_GW">     0</i>
   <i name="MODEL_EPS0">     12.00772552</i>
   <i name="MODEL_ALPHA">      1.00000000</i>
  </separator>
  <separator name="linear response parameters" >
   <i type="logical" name="LEPSILON"> F  </i>
   <i type="logical" name="LRPA"> F  </i>
   <i type="logical" name="LNABLA"> F  </i>
   <i type="logical" name="LVEL"> F  </i>
   <i type="int" name="KINTER">     0</i>
   <i name="CSHIFT">      0.10000000</i>
   <i name="OMEGAMAX">     -1.00000000</i>
   <i name="DEG_THRESHOLD">      0.00200000</i>
   <i name="RTIME">     -0.10000000</i>
   <i name="WPLASMAI">      0.00000000</i>
   <v name="DFIELD">      0.00000000      0.00000000      0.00000000</v>
   <v name="WPLASMA">      0.00000000      0.00000000      0.00000000      0.00000000      0.00000000      0.00000000      0.00000000      0.00000000      0.00000000</v>
  </separator>
  <separator name="orbital magnetization" >
   <i type="logical" name="NUCIND"> F  </i>
   <v name="MAGPOS">      0.00000000      0.00000000      0.00000000</v>
   <i type="logical" name="LNICSALL"> T  </i>
   <i type="logical" name="ORBITALMAG"> F  </i>
   <i type="logical" name="LMAGBLOCH"> F  </i>
   <i type="logical" name="LCHIMAG"> F  </i>
   <i type="logical" name="LGAUGE"> T  </i>
   <i type="int" name="MAGATOM">     0</i>
   <v name="MAGDIPOL">      0.00000000      0.00000000      0.00000000</v>
   <v name="AVECCONST">      0.00000000      0.00000000      0.00000000</v>
  </separator>
  <separator name="response functions" >
   <i type="logical" name="LADDER"> F  </i>
   <i type="logical" name="LRPAFORCE"> F  </i>
   <i type="logical" name="LFXC"> F  </i>
   <i type="logical" name="LHARTREE"> T  </i>
   <i type="int" name="IBSE">     0</i>
   <v type="int" name="KPOINT">    -1     0     0     0</v>
   <i type="logical" name="LTCTE"> F  </i>
   <i type="logical" name="LTETE"> F  </i>
   <i type="logical" name="LTRIPLET"> F  </i>
   <i type="logical" name="LFXCEPS"> F  </i>
   <i type="logical" name="LFXHEG"> F  </i>
   <i type="int" name="NATURALO">     2</i>
   <i type="logical" name="L2ORDER"> F  </i>
   <i type="logical" name="LMP2LT"> F  </i>
   <i type="logical" name="LUSEW"> F  </i>
   <i name="ENCUTGW">     -2.00000000</i>
   <i name="ENCUTGWSOFT">     -2.00000000</i>
   <i name="ENCUTLF">     -1.00000000</i>
   <i type="int" name="LMAXMP2">    -1</i>
   <i name="SCISSOR">      0.00000000</i>
   <i type="int" name="NOMEGA">     0</i>
   <i type="int" name="NOMEGAR">     0</i>
   <i type="int" name="NBANDSGW">    -1</i>
   <i type="int" name="NBANDSO">    -1</i>
   <i type="int" name="NBANDSV">    -1</i>
   <i type="int" name="NELM">     1</i>
   <i type="int" name="NELMHF">     1</i>
   <i type="int" name="DIM">     3</i>
   <i type="int" name="ANTIRES">     0</i>
   <i name="OMEGAMAX">    -30.00000000</i>
   <i name="OMEGAMIN">    -30.00000000</i>
   <i name="OMEGATL">   -200.00000000</i>
   <i type="int" name="OMEGAGRID">   140</i>
   <i name="CSHIFT">     -0.10000000</i>
   <i type="logical" name="SELFENERGY"> F  </i>
   <i type="logical" name="LSPECTRAL"> F  </i>
   <i type="logical" name="LSPECTRALGW"> F  </i>
   <i type="logical" name="LSINGLES"> F  </i>
   <i type="logical" name="LFERMIGW"> F  </i>
   <i type="logical" name="ODDONLYGW"> F  </i>
   <i type="logical" name="EVENONLYGW"> F  </i>
   <i type="int" name="NKREDLFX">     1</i>
   <i type="int" name="NKREDLFY">     1</i>
   <i type="int" name="NKREDLFZ">     1</i>
   <i type="int" name="MAXMEM">  2800</i>
   <i type="int" name="TELESCOPE">     0</i>
   <i type="int" name="TAUPAR">     1</i>
   <i type="int" name="OMEGAPAR">    -1</i>
   <i name="LAMBDA">      1.00000000</i>
  </separator>
  <separator name="External order field" >
   <i name="OFIELD_KAPPA">      0.00000000</i>
   <v name="OFIELD_K">      0.00000000      0.00000000      0.00000000</v>
   <i name="OFIELD_Q6_NEAR">      0.00000000</i>
   <i name="OFIELD_Q6_FAR">      0.00000000</i>
   <i name="OFIELD_A">      0.00000000</i>
  </separator>
 </parameters>
 <atominfo>
  <atoms>       2 </atoms>
  <types>       1 </types>
  <array name="atoms" >
   <dimension dim="1">ion</dimension>
   <field type="string">element</field>
   <field type="int">atomtype</field>
   <set>
    <rc><c>Si</c><c>   1</c></rc>
    <rc><c>Si</c><c>   1</c></rc>
   </set>
  </array>
  <array name="atomtypes" >
   <dimension dim="1">type</dimension>
   <field type="int">atomspertype</field>
   <field type="string">element</field>
   <field>mass</field>
   <field>valence</field>
   <field type="string">pseudopotential</field>
   <set>
    <rc><c>   2</c><c>Si</c><c>     28.08500000</c><c>      4.00000000</c><c> PAW_PBE Si 05Jan2001                   </c></rc>
   </set>
  </array>
 </atominfo>
 <structure name="initialpos" >
  <crystal>
   <varray name="basis" >
    <v>       2.71500000       2.71500000       0.00000000 </v>
    <v>       0.00000000       2.71500000       2.71500000 </v>
    <v>       2.71500000       0.00000000       2.71500000 </v>
   </varray>
   <i name="volume">     40.02575175 </i>
   <varray name="rec_basis" >
    <v>       0.18416206       0.18416206      -0.18416206 </v>
    <v>      -0.18416206       0.18416206       0.18416206 </v>
    <v>       0.18416206      -0.18416206       0.18416206 </v>
   </varray>
  </crystal>
  <varray name="positions" >
   <v>       0.00000000       0.00000000       0.00000000 </v>
   <v>       0.25000000       0.25000000       0.25000000 </v>
  </varray>
 </structure>
 <calculation>
  <scstep>
   <time name="total">    3.78    3.78</time>
   <energy>
    <i name="alphaZ">      3.36414203 </i>
    <i name="ewald">   -228.56352493 </i>
    <i name="hartreedc">    -15.27105673 </i>
    <i name="XCdc">    -14.35500492 </i>
    <i name="pawpsdc">     69.73609011 </i>
    <i name="pawaedc">    -42.08535142 </i>
    <i name="eentropy">     -0.00000000 </i>
    <i name="bandstr">     -0.51685357 </i>
    <i name="atom">    203.40173791 </i>
    <i name="e_fr_energy">    -12.96059971 </i>
    <i name="e_wo_entrp">    -12.96059971 </i>
    <i name="e_0_energy">    -12.96059971 </i>
   </energy>
  </scstep>
  <scstep>
   <time name="total">    5.46    5.47</time>
   <energy>
    <i name="alphaZ">      3.36414203 </i>
    <i name="ewald">   -228.56352493 </i>
    <i name="hartreedc">    -15.27105537 </i>
    <i name="XCdc">    -14.35500501 </i>
    <i name="pawpsdc">     69.73608362 </i>
    <i name="pawaedc">    -42.08534484 </i>
    <i name="eentropy">     -0.00000000 </i>
    <i name="bandstr">     -0.51685489 </i>
    <i name="atom">    203.40173791 </i>
    <i name="e_fr_energy">    -12.96059971 </i>
    <i name="e_wo_entrp">    -12.96059971 </i>
    <i name="e_0_energy">    -12.96059971 </i>
   </energy>
  </scstep>
  <structure>
   <crystal>
    <varray name="basis" >
     <v>       2.71500000       2.71500000       0.00000000 </v>
     <v>       0.00000000       2.71500000       2.71500000 </v>
     <v>       2.71500000       0.00000000       2.71500000 </v>
    </varray>
    <i name="volume">     40.02575175 </i>
    <varray name="rec_basis" >
     <v>       0.18416206       0.18416206      -0.18416206 </v>
     <v>      -0.18416206       0.18416206       0.18416206 </v>
     <v>       0.18416206      -0.18416206       0.18416206 </v>
    </varray>
   </crystal>
   <varray name="positions" >
    <v>       0.00000000       0.00000000       0.00000000 </v>
    <v>       0.25000000       0.25000000       0.25000000 </v>
   </varray>
  </structure>
  <varray name="forces" >
   <v>       0.00000000       0.00000000       0.00000000 </v>
   <v>      -0.00000000      -0.00000000      -0.00000000 </v>
  </varray>
  <varray name="stress" >
   <v>       8.80201097       0.00000000       0.00000000 </v>
   <v>       0.00000000       8.80201097      -0.00000000 </v>
   <v>      -0.00000000       0.00000000       8.80201097 </v>
  </varray>
  <energy>
   <i name="e_fr_energy">    -12.96059971 </i>
   <i name="e_wo_entrp">    -12.96059971 </i>
   <i name="e_0_energy">     -0.00000000 </i>
  </energy>
  <time name="totalsc">   13.64   13.67</time>
  <eigenvalues>
   <array>
    <dimension dim="1">band</dimension>
    <dimension dim="2">kpoint</dimension>
    <dimension dim="3">spin</dimension>
    <field>eigene</field>
    <field>occ</field>
    <set>
     <set comment="spin 1">
      <set comment="kpoint 1">
       <r>   -7.7802    1.0000 </r>
       <r>    5.4759    1.0000 </r>
       <r>    5.4759    1.0000 </r>
       <r>    5.4759    1.0000 </r>
       <r>    8.8443    0.0000 </r>
       <r>    8.8443    0.0000 </r>
       <r>    8.8443    0.0000 </r>
       <r>    9.8881    0.0000 </r>
      </set>
      <set comment="kpoint 2">
       <r>   -6.8934    1.0000 </r>
       <r>    1.2122    1.0000 </r>
       <r>    4.6652    1.0000 </r>
       <r>    4.6652    1.0000 </r>
       <r>    8.3107    0.0000 </r>
       <r>    9.8456    0.0000 </r>
       <r>    9.8456    0.0000 </r>
       <r>   13.5321    0.0000 </r>
      </set>
      <set comment="kpoint 3">
       <r>   -5.1866    1.0000 </r>
       <r>   -2.2124    1.0000 </r>
       <r>    4.1663    1.0000 </r>
       <r>    4.1663    1.0000 </r>
       <r>    7.7920    0.0000 </r>
       <r>    9.6521    0.0000 </r>
       <r>    9.6521    0.0000 </r>
       <r>   14.1386    0.0000 </r>
      </set>
      <set comment="kpoint 4">
       <r>   -6.5798    1.0000 </r>
       <r>    1.6780    1.0000 </r>
       <r>    3.4307    1.0000 </r>
       <r>    3.4307    1.0000 </r>
       <r>    7.2760    0.0000 </r>
       <r>    9.4124    0.0000 </r>
       <r>   12.2756    0.0000 </r>
       <r>   12.2757    0.0000 </r>
      </set>
      <set comment="kpoint 5">
       <r>   -4.7561    1.0000 </r>
       <r>   -1.5511    1.0000 </r>
       <r>    1.6615    1.0000 </r>
       <r>    3.0694    1.0000 </r>
       <r>    7.6910    0.0000 </r>
       <r>   10.7873    0.0000 </r>
       <r>   12.2782    0.0000 </r>
       <r>   12.4263    0.0000 </r>
      </set>
      <set comment="kpoint 6">
       <r>   -5.5088    1.0000 </r>
       <r>   -0.5384    1.0000 </r>
       <r>    1.4201    1.0000 </r>
       <r>    4.0417    1.0000 </r>
       <r>    8.7153    0.0000 </r>
       <r>   11.2678    0.0000 </r>
       <r>   11.5032    0.0000 </r>
       <r>   12.6997    0.0000 </r>
      </set>
      <set comment="kpoint 7">
       <r>   -3.1600    1.0000 </r>
       <r>   -3.1600    1.0000 </r>
       <r>    2.3437    1.0000 </r>
       <r>    2.3437    1.0000 </r>
       <r>    6.8186    0.0000 </r>
       <r>    6.8186    0.0000 </r>
       <r>   17.0148    0.0000 </r>
       <r>   17.0220    0.0000 </r>
      </set>
      <set comment="kpoint 8">
       <r>   -2.9771    1.0000 </r>
       <r>   -2.9771    1.0000 </r>
       <r>    1.3007    1.0000 </r>
       <r>    1.3007    1.0000 </r>
       <r>   10.5588    0.0000 </r>
       <r>   10.5588    0.0000 </r>
       <r>   11.4963    0.0000 </r>
       <r>   11.4963    0.0000 </r>
      </set>
     </set>
    </set>
   </array>
  </eigenvalues>
  <separator name="orbital magnetization" >
   <v name="MAGDIPOLOUT">      0.00000000      0.00000000      0.00000000</v>
  </separator>
  <dos>
   <i name="efermi">      5.98644572 </i>
   <total>
    <array>
     <dimension dim="1">gridpoints</dimension>
     <dimension dim="2">spin</dimension>
     <field>energy</field>
     <field>total</field>
     <field>integrated</field>
     <set>
      <set comment="spin 1">
       <r>    -9.0203     0.0000     0.0000 </r>
       <r>    -8.9293     0.0000     0.0000 </r>
       <r>    -8.8384     0.0000     0.0000 </r>
       <r>    -8.7475     0.0000     0.0000 </r>
       <r>    -8.6565     0.0000     0.0000 </r>
       <r>    -8.5656     0.0000     0.0000 </r>
       <r>    -8.4746     0.0000     0.0000 </r>
       <r>    -8.3837     0.0000     0.0000 </r>
       <r>    -8.2928     0.0000     0.0000 </r>
       <r>    -8.2018     0.0000     0.0000 </r>
       <r>    -8.1109     0.0000     0.0000 </r>
       <r>    -8.0199     0.0001     0.0000 </r>
       <r>    -7.9290     0.0060     0.0006 </r>
       <r>    -7.8380     0.0649     0.0065 </r>
       <r>    -7.7471     0.1627     0.0212 </r>
       <r>    -7.6562     0.0963     0.0300 </r>
       <r>    -7.5652     0.0132     0.0312 </r>
       <r>    -7.4743     0.0004     0.0312 </r>
       <r>    -7.3833     0.0000     0.0312 </r>
       <r>    -7.2924     0.0000     0.0313 </r>
       <r>    -7.2015     0.0000     0.0313 </r>
       <r>    -7.1105     0.0029     0.0315 </r>
       <r>    -7.0196     0.0992     0.0405 </r>
       <r>    -6.9286     0.7474     0.1085 </r>
       <r>    -6.8377     1.3074     0.2274 </r>
       <r>    -6.7468     0.5585     0.2782 </r>
       <r>    -6.6558     0.3238     0.3076 </r>
       <r>    -6.5649     0.9133     0.3907 </r>
       <r>    -6.4739     0.7199     0.4562 </r>
       <r>    -6.3830     0.1329     0.4682 </r>
       <r>    -6.2920     0.0055     0.4687 </r>
       <r>    -6.2011     0.0000     0.4687 </r>
       <r>    -6.1102     0.0000     0.4687 </r>
       <r>    -6.0192     0.0000     0.4688 </r>
       <r>    -5.9283     0.0000     0.4688 </r>
       <r>    -5.8373     0.0000     0.4688 </r>
       <r>    -5.7464     0.0016     0.4689 </r>
       <r>    -5.6555     0.0769     0.4759 </r>
       <r>    -5.5645     0.8094     0.5495 </r>
       <r>    -5.4736     1.9605     0.7278 </r>
       <r>    -5.3826     1.1255     0.8301 </r>
       <r>    -5.2917     0.2394     0.8519 </r>
       <r>    -5.2008     0.4881     0.8963 </r>
       <r>    -5.1098     0.6057     0.9514 </r>
       <r>    -5.0189     0.1796     0.9677 </r>
       <r>    -4.9279     0.0735     0.9744 </r>
       <r>    -4.8370     0.9808     1.0636 </r>
       <r>    -4.7460     3.5490     1.3864 </r>
       <r>    -4.6551     3.0241     1.6614 </r>
       <r>    -4.5642     0.6036     1.7163 </r>
       <r>    -4.4732     0.0271     1.7187 </r>
       <r>    -4.3823     0.0003     1.7187 </r>
       <r>    -4.2913     0.0000     1.7187 </r>
       <r>    -4.2004     0.0000     1.7187 </r>
       <r>    -4.1095     0.0000     1.7188 </r>
       <r>    -4.0185     0.0000     1.7188 </r>
       <r>    -3.9276     0.0000     1.7188 </r>
       <r>    -3.8366     0.0000     1.7188 </r>
       <r>    -3.7457     0.0000     1.7188 </r>
       <r>    -3.6548     0.0000     1.7188 </r>
       <r>    -3.5638     0.0000     1.7188 </r>
       <r>    -3.4729     0.0000     1.7188 </r>
       <r>    -3.3819     0.0017     1.7189 </r>
       <r>    -3.2910     0.0643     1.7248 </r>
       <r>    -3.2000     0.5265     1.7726 </r>
       <r>    -3.1091     1.1112     1.8737 </r>
       <r>    -3.0182     1.4703     2.0074 </r>
       <r>    -2.9272     2.0203     2.1911 </r>
       <r>    -2.8363     0.8954     2.2726 </r>
       <r>    -2.7453     0.0934     2.2811 </r>
       <r>    -2.6544     0.0021     2.2812 </r>
       <r>    -2.5635     0.0000     2.2813 </r>
       <r>    -2.4725     0.0002     2.2813 </r>
       <r>    -2.3816     0.0113     2.2823 </r>
       <r>    -2.2906     0.1730     2.2980 </r>
       <r>    -2.1997     0.6006     2.3527 </r>
       <r>    -2.1087     0.4913     2.3973 </r>
       <r>    -2.0178     0.0940     2.4059 </r>
       <r>    -1.9269     0.0040     2.4062 </r>
       <r>    -1.8359     0.0003     2.4063 </r>
       <r>    -1.7450     0.0250     2.4085 </r>
       <r>    -1.6540     0.5751     2.4608 </r>
       <r>    -1.5631     2.9693     2.7309 </r>
       <r>    -1.4722     3.5888     3.0572 </r>
       <r>    -1.3812     1.0216     3.1502 </r>
       <r>    -1.2903     0.0661     3.1562 </r>
       <r>    -1.1993     0.0009     3.1562 </r>
       <r>    -1.1084     0.0000     3.1562 </r>
       <r>    -1.0175     0.0000     3.1563 </r>
       <r>    -0.9265     0.0000     3.1563 </r>
       <r>    -0.8356     0.0001     3.1563 </r>
       <r>    -0.7446     0.0073     3.1569 </r>
       <r>    -0.6537     0.2052     3.1756 </r>
       <r>    -0.5627     1.2944     3.2933 </r>
       <r>    -0.4718     1.9030     3.4664 </r>
       <r>    -0.3809     0.6603     3.5264 </r>
       <r>    -0.2899     0.0524     3.5312 </r>
       <r>    -0.1990     0.0009     3.5312 </r>
       <r>    -0.1080     0.0000     3.5312 </r>
       <r>    -0.0171     0.0000     3.5312 </r>
       <r>     0.0738     0.0000     3.5312 </r>
       <r>     0.1648     0.0000     3.5312 </r>
       <r>     0.2557     0.0000     3.5312 </r>
       <r>     0.3467     0.0000     3.5312 </r>
       <r>     0.4376     0.0000     3.5312 </r>
       <r>     0.5285     0.0000     3.5312 </r>
       <r>     0.6195     0.0000     3.5312 </r>
       <r>     0.7104     0.0000     3.5313 </r>
       <r>     0.8014     0.0000     3.5313 </r>
       <r>     0.8923     0.0000     3.5313 </r>
       <r>     0.9833     0.0017     3.5314 </r>
       <r>     1.0742     0.0713     3.5379 </r>
       <r>     1.1651     0.7372     3.6049 </r>
       <r>     1.2561     2.3351     3.8173 </r>
       <r>     1.3470     3.2146     4.1096 </r>
       <r>     1.4380     2.8828     4.3718 </r>
       <r>     1.5289     1.7816     4.5338 </r>
       <r>     1.6198     2.6758     4.7772 </r>
       <r>     1.7108     4.9375     5.2262 </r>
       <r>     1.8017     2.3893     5.4435 </r>
       <r>     1.8927     0.2712     5.4681 </r>
       <r>     1.9836     0.0069     5.4687 </r>
       <r>     2.0746     0.0002     5.4688 </r>
       <r>     2.1655     0.0120     5.4699 </r>
       <r>     2.2564     0.2118     5.4891 </r>
       <r>     2.3474     0.8498     5.5664 </r>
       <r>     2.4383     0.8016     5.6393 </r>
       <r>     2.5293     0.1774     5.6554 </r>
       <r>     2.6202     0.0089     5.6562 </r>
       <r>     2.7111     0.0001     5.6563 </r>
       <r>     2.8021     0.0006     5.6563 </r>
       <r>     2.8930     0.0513     5.6610 </r>
       <r>     2.9840     0.8830     5.7413 </r>
       <r>     3.0749     3.4426     6.0544 </r>
       <r>     3.1658     3.1575     6.3415 </r>
       <r>     3.2568     0.7074     6.4058 </r>
       <r>     3.3477     0.5004     6.4513 </r>
       <r>     3.4387     1.7510     6.6106 </r>
       <r>     3.5296     1.5430     6.7509 </r>
       <r>     3.6206     0.3188     6.7799 </r>
       <r>     3.7115     0.0148     6.7812 </r>
       <r>     3.8024     0.0016     6.7814 </r>
       <r>     3.8934     0.0728     6.7880 </r>
       <r>     3.9843     0.7996     6.8607 </r>
       <r>     4.0753     2.2127     7.0619 </r>
       <r>     4.1662     2.2491     7.2665 </r>
       <r>     4.2571     1.2590     7.3810 </r>
       <r>     4.3481     0.2640     7.4050 </r>
       <r>     4.4390     0.0176     7.4066 </r>
       <r>     4.5300     0.1498     7.4202 </r>
       <r>     4.6209     1.3066     7.5390 </r>
       <r>     4.7118     2.6377     7.7789 </r>
       <r>     4.8028     1.2583     7.8933 </r>
       <r>     4.8937     0.1387     7.9059 </r>
       <r>     4.9847     0.0034     7.9062 </r>
       <r>     5.0756     0.0000     7.9062 </r>
       <r>     5.1666     0.0000     7.9063 </r>
       <r>     5.2575     0.0010     7.9063 </r>
       <r>     5.3484     0.0358     7.9096 </r>
       <r>     5.4394     0.2754     7.9346 </r>
       <r>     5.5303     0.4912     7.9793 </r>
       <r>     5.6213     0.2069     7.9981 </r>
       <r>     5.7122     0.0201     8.0000 </r>
       <r>     5.8031     0.0004     8.0000 </r>
       <r>     5.8941     0.0000     8.0000 </r>
       <r>     5.9850     0.0000     8.0000 </r>
       <r>     6.0760     0.0000     8.0000 </r>
       <r>     6.1669     0.0000     8.0000 </r>
       <r>     6.2578     0.0000     8.0000 </r>
       <r>     6.3488     0.0000     8.0000 </r>
       <r>     6.4397     0.0000     8.0000 </r>
       <r>     6.5307     0.0000     8.0000 </r>
       <r>     6.6216     0.0055     8.0005 </r>
       <r>     6.7126     0.1323     8.0125 </r>
       <r>     6.8035     0.7187     8.0779 </r>
       <r>     6.8944     0.9130     8.1609 </r>
       <r>     6.9854     0.2734     8.1858 </r>
       <r>     7.0763     0.0235     8.1879 </r>
       <r>     7.1673     0.1234     8.1991 </r>
       <r>     7.2582     0.6983     8.2627 </r>
       <r>     7.3491     0.9254     8.3468 </r>
       <r>     7.4401     0.2907     8.3732 </r>
       <r>     7.5310     0.1166     8.3839 </r>
       <r>     7.6220     1.2691     8.4993 </r>
       <r>     7.7129     3.9397     8.8575 </r>
       <r>     7.8039     3.2633     9.1543 </r>
       <r>     7.8948     0.9354     9.2394 </r>
       <r>     7.9857     0.1124     9.2496 </r>
       <r>     8.0767     0.0056     9.2501 </r>
       <r>     8.1676     0.0579     9.2554 </r>
       <r>     8.2586     0.5744     9.3076 </r>
       <r>     8.3495     1.3139     9.4271 </r>
       <r>     8.4404     0.7104     9.4917 </r>
       <r>     8.5314     0.1080     9.5015 </r>
       <r>     8.6223     0.3731     9.5355 </r>
       <r>     8.7133     1.6581     9.6862 </r>
       <r>     8.8042     1.9398     9.8626 </r>
       <r>     8.8951     0.9007     9.9446 </r>
       <r>     8.9861     0.2426     9.9666 </r>
       <r>     9.0770     0.0229     9.9687 </r>
       <r>     9.1680     0.0011     9.9688 </r>
       <r>     9.2589     0.0303     9.9716 </r>
       <r>     9.3499     0.3570    10.0040 </r>
       <r>     9.4408     0.9682    10.0921 </r>
       <r>     9.5317     0.7333    10.1588 </r>
       <r>     9.6227     0.9050    10.2411 </r>
       <r>     9.7136     1.4608    10.3739 </r>
       <r>     9.8046     1.8967    10.5464 </r>
       <r>     9.8955     2.8209    10.8029 </r>
       <r>     9.9864     1.3238    10.9233 </r>
       <r>    10.0774     0.1518    10.9371 </r>
       <r>    10.1683     0.0041    10.9375 </r>
       <r>    10.2593     0.0001    10.9375 </r>
       <r>    10.3502     0.0065    10.9381 </r>
       <r>    10.4411     0.1914    10.9555 </r>
       <r>    10.5321     1.2571    11.0698 </r>
       <r>    10.6230     2.0011    11.2518 </r>
       <r>    10.7140     1.8450    11.4196 </r>
       <r>    10.8049     3.7559    11.7612 </r>
       <r>    10.8959     2.7992    12.0157 </r>
       <r>    10.9868     0.4948    12.0607 </r>
       <r>    11.0777     0.0342    12.0638 </r>
       <r>    11.1687     0.3171    12.0927 </r>
       <r>    11.2596     1.5426    12.2330 </r>
       <r>    11.3506     1.8949    12.4053 </r>
       <r>    11.4415     2.0178    12.5888 </r>
       <r>    11.5324     3.9258    12.9458 </r>
       <r>    11.6234     2.3246    13.1572 </r>
       <r>    11.7143     0.3231    13.1866 </r>
       <r>    11.8053     0.0100    13.1875 </r>
       <r>    11.8962     0.0001    13.1875 </r>
       <r>    11.9871     0.0003    13.1875 </r>
       <r>    12.0781     0.0297    13.1902 </r>
       <r>    12.1690     0.7486    13.2583 </r>
       <r>    12.2600     4.2848    13.6480 </r>
       <r>    12.3509     6.6450    14.2523 </r>
       <r>    12.4419     5.3818    14.7417 </r>
       <r>    12.5328     3.0192    15.0163 </r>
       <r>    12.6237     1.0696    15.1135 </r>
       <r>    12.7147     1.8462    15.2814 </r>
       <r>    12.8056     1.4395    15.4123 </r>
       <r>    12.8966     0.2655    15.4365 </r>
       <r>    12.9875     0.0110    15.4375 </r>
       <r>    13.0784     0.0001    15.4375 </r>
       <r>    13.1694     0.0000    15.4375 </r>
       <r>    13.2603     0.0002    15.4375 </r>
       <r>    13.3513     0.0143    15.4388 </r>
       <r>    13.4422     0.2654    15.4629 </r>
       <r>    13.5332     1.1108    15.5640 </r>
       <r>    13.6241     1.0926    15.6633 </r>
       <r>    13.7150     0.2524    15.6863 </r>
       <r>    13.8060     0.0132    15.6875 </r>
       <r>    13.8969     0.0006    15.6875 </r>
       <r>    13.9879     0.0222    15.6896 </r>
       <r>    14.0788     0.2505    15.7123 </r>
       <r>    14.1697     0.6478    15.7713 </r>
       <r>    14.2607     0.3956    15.8072 </r>
       <r>    14.3516     0.0562    15.8123 </r>
       <r>    14.4426     0.0018    15.8125 </r>
       <r>    14.5335     0.0000    15.8125 </r>
       <r>    14.6244     0.0000    15.8125 </r>
       <r>    14.7154     0.0000    15.8125 </r>
       <r>    14.8063     0.0000    15.8125 </r>
       <r>    14.8973     0.0000    15.8125 </r>
       <r>    14.9882     0.0000    15.8125 </r>
       <r>    15.0792     0.0000    15.8125 </r>
       <r>    15.1701     0.0000    15.8125 </r>
       <r>    15.2610     0.0000    15.8125 </r>
       <r>    15.3520     0.0000    15.8125 </r>
       <r>    15.4429     0.0000    15.8125 </r>
       <r>    15.5339     0.0000    15.8125 </r>
       <r>    15.6248     0.0000    15.8125 </r>
       <r>    15.7157     0.0000    15.8125 </r>
       <r>    15.8067     0.0000    15.8125 </r>
       <r>    15.8976     0.0000    15.8125 </r>
       <r>    15.9886     0.0000    15.8125 </r>
       <r>    16.0795     0.0000    15.8125 </r>
       <r>    16.1704     0.0000    15.8125 </r>
       <r>    16.2614     0.0000    15.8125 </r>
       <r>    16.3523     0.0000    15.8125 </r>
       <r>    16.4433     0.0000    15.8125 </r>
       <r>    16.5342     0.0000    15.8125 </r>
       <r>    16.6252     0.0000    15.8125 </r>
       <r>    16.7161     0.0000    15.8125 </r>
       <r>    16.8070     0.0029    15.8128 </r>
       <r>    16.8980     0.0889    15.8208 </r>
       <r>    16.9889     0.6065    15.8760 </r>
       <r>    17.0799     0.9664    15.9639 </r>
       <r>    17.1708     0.3648    15.9971 </r>
       <r>    17.2617     0.0317    15.9999 </r>
       <r>    17.3527     0.0006    16.0000 </r>
       <r>    17.4436     0.0000    16.0000 </r>
       <r>    17.5346     0.0000    16.0000 </r>
       <r>    17.6255     0.0000    16.0000 </r>
       <r>    17.7164     0.0000    16.0000 </r>
       <r>    17.8074     0.0000    16.0000 </r>
       <r>    17.8983     0.0000    16.0000 </r>
       <r>    17.9893     0.0000    16.0000 </r>
       <r>    18.0802     0.0000    16.0000 </r>
       <r>    18.1712     0.0000    16.0000 </r>
       <r>    18.2621     0.0000    16.0000 </r>
      </set>
     </set>
    </array>
   </total>
  </dos>
 </calculation>
 <structure name="finalpos" >
  <crystal>
   <varray name="basis" >
    <v>       2.71500000       2.71500000       0.00000000 </v>
    <v>       0.00000000       2.71500000       2.71500000 </v>
    <v>       2.71500000       0.00000000       2.71500000 </v>
   </varray>
   <i name="volume">     40.02575175 </i>
   <varray name="rec_basis" >
    <v>       0.18416206       0.18416206      -0.18416206 </v>
    <v>      -0.18416206       0.18416206       0.18416206 </v>
    <v>       0.18416206      -0.18416206       0.18416206 </v>
   </varray>
  </crystal>
  <varray name="positions" >
   <v>       0.00000000       0.00000000       0.00000000 </v>
   <v>       0.25000000       0.25000000       0.25000000 </v>
  </varray>
 </structure>
</modeling>
