   2   2   0   0
  0.2001288E+02  0.3839590E-09  0.3839590E-09  0.3839590E-09  0.5000000E-15
  1.000000000000000E-004
  CAR 
 Si                                      
     17.95022681     -8.12913794 2000      6.11609829      1.00000000
     -8.129  0.0000E+00  0.0000E+00
     -8.116  0.0000E+00  0.0000E+00
     -8.103  0.0000E+00  0.0000E+00
     -8.090  0.0000E+00  0.0000E+00
     -8.077  0.0000E+00  0.0000E+00
     -8.064  0.0000E+00  0.0000E+00
     -8.051  0.0000E+00  0.0000E+00
     -8.038  0.0000E+00  0.0000E+00
     -8.025  0.0000E+00  0.0000E+00
     -8.012  0.0000E+00  0.0000E+00
     -7.999  0.0000E+00  0.0000E+00
     -7.986  0.0000E+00  0.0000E+00
     -7.973  0.0000E+00  0.0000E+00
     -7.960  0.0000E+00  0.0000E+00
     -7.946  0.0000E+00  0.0000E+00
     -7.933  0.0000E+00  0.0000E+00
     -7.920  0.0000E+00  0.0000E+00
     -7.907  0.0000E+00  0.0000E+00
     -7.894  0.0000E+00  0.0000E+00
     -7.881  0.0000E+00  0.0000E+00
     -7.868  0.0000E+00  0.0000E+00
     -7.855  0.0000E+00  0.0000E+00
     -7.842  0.0000E+00  0.0000E+00
     -7.829  0.0000E+00  0.0000E+00
     -7.816  0.0000E+00  0.0000E+00
     -7.803  0.0000E+00  0.0000E+00
     -7.790  0.0000E+00  0.0000E+00
     -7.777  0.0000E+00  0.0000E+00
     -7.764  0.0000E+00  0.0000E+00
     -7.751  0.0000E+00  0.0000E+00
     -7.738  0.0000E+00  0.0000E+00
     -7.725  0.0000E+00  0.0000E+00
     -7.712  0.0000E+00  0.0000E+00
     -7.699  0.0000E+00  0.0000E+00
     -7.686  0.0000E+00  0.0000E+00
     -7.673  0.0000E+00  0.0000E+00
     -7.659  0.0000E+00  0.0000E+00
     -7.646  0.0000E+00  0.0000E+00
     -7.633  0.0000E+00  0.0000E+00
     -7.620  0.0000E+00  0.0000E+00
     -7.607  0.0000E+00  0.0000E+00
     -7.594  0.0000E+00  0.0000E+00
     -7.581  0.0000E+00  0.0000E+00
     -7.568  0.0000E+00  0.0000E+00
     -7.555  0.0000E+00  0.0000E+00
     -7.542  0.0000E+00  0.0000E+00
     -7.529  0.0000E+00  0.0000E+00
     -7.516  0.0000E+00  0.0000E+00
     -7.503  0.0000E+00  0.0000E+00
     -7.490  0.0000E+00  0.0000E+00
     -7.477  0.0000E+00  0.0000E+00
     -7.464  0.0000E+00  0.0000E+00
     -7.451  0.0000E+00  0.0000E+00
     -7.438  0.0000E+00  0.0000E+00
     -7.425  0.0000E+00  0.0000E+00
     -7.412  0.0000E+00  0.0000E+00
     -7.399  0.0000E+00  0.0000E+00
     -7.386  0.0000E+00  0.0000E+00
     -7.372  0.0000E+00  0.0000E+00
     -7.359  0.0000E+00  0.0000E+00
     -7.346  0.0000E+00  0.0000E+00
     -7.333  0.0000E+00  0.0000E+00
     -7.320  0.0000E+00  0.0000E+00
     -7.307  0.1662E-16  0.2168E-18
     -7.294  0.1662E-16  0.4337E-18
     -7.281  0.1662E-16  0.6505E-18
     -7.268  0.6648E-16  0.1518E-17
     -7.255  0.1330E-15  0.3253E-17
     -7.242  0.2826E-15  0.6939E-17
     -7.229  0.5817E-15  0.1453E-16
     -7.216  0.1180E-14  0.2992E-16
     -7.203  0.2410E-14  0.6137E-16
     -7.190  0.4837E-14  0.1245E-15
     -7.177  0.9673E-14  0.2507E-15
     -7.164  0.1915E-13  0.5005E-15
     -7.151  0.3758E-13  0.9907E-15
     -7.138  0.7313E-13  0.1945E-14
     -7.125  0.1411E-12  0.3786E-14
     -7.112  0.2700E-12  0.7309E-14
     -7.098  0.5125E-12  0.1399E-13
     -7.085  0.9639E-12  0.2657E-13
     -7.072  0.1798E-11  0.5002E-13
     -7.059  0.3325E-11  0.9340E-13
     -7.046  0.6098E-11  0.1730E-12
     -7.033  0.1109E-10  0.3176E-12
     -7.020  0.1999E-10  0.5784E-12
     -7.007  0.3573E-10  0.1045E-11
     -6.994  0.6333E-10  0.1871E-11
     -6.981  0.1113E-09  0.3323E-11
     -6.968  0.1940E-09  0.5854E-11
     -6.955  0.3352E-09  0.1023E-10
     -6.942  0.5742E-09  0.1772E-10
     -6.929  0.9755E-09  0.3044E-10
     -6.916  0.1643E-08  0.5188E-10
     -6.903  0.2744E-08  0.8769E-10
     -6.890  0.4545E-08  0.1470E-09
     -6.877  0.7463E-08  0.2443E-09
     -6.864  0.1215E-07  0.4029E-09
     -6.851  0.1962E-07  0.6588E-09
     -6.838  0.3141E-07  0.1069E-08
     -6.825  0.4985E-07  0.1719E-08
     -6.811  0.7847E-07  0.2743E-08
     -6.798  0.1225E-06  0.4340E-08
     -6.785  0.1895E-06  0.6813E-08
     -6.772  0.2908E-06  0.1061E-07
     -6.759  0.4426E-06  0.1638E-07
     -6.746  0.6678E-06  0.2509E-07
     -6.733  0.9992E-06  0.3813E-07
     -6.720  0.1483E-05  0.5747E-07
     -6.707  0.2182E-05  0.8593E-07
     -6.694  0.3183E-05  0.1275E-06
     -6.681  0.4606E-05  0.1876E-06
     -6.668  0.6609E-05  0.2738E-06
     -6.655  0.9406E-05  0.3965E-06
     -6.642  0.1328E-04  0.5697E-06
     -6.629  0.1858E-04  0.8121E-06
     -6.616  0.2580E-04  0.1149E-05
     -6.603  0.3553E-04  0.1612E-05
     -6.590  0.4854E-04  0.2246E-05
     -6.577  0.6577E-04  0.3104E-05
     -6.564  0.8841E-04  0.4257E-05
     -6.551  0.1179E-03  0.5795E-05
     -6.538  0.1560E-03  0.7831E-05
     -6.524  0.2049E-03  0.1050E-04
     -6.511  0.2670E-03  0.1399E-04
     -6.498  0.3453E-03  0.1849E-04
     -6.485  0.4433E-03  0.2427E-04
     -6.472  0.5649E-03  0.3164E-04
     -6.459  0.7149E-03  0.4097E-04
     -6.446  0.8984E-03  0.5269E-04
     -6.433  0.1122E-02  0.6732E-04
     -6.420  0.1391E-02  0.8547E-04
     -6.407  0.1714E-02  0.1078E-03
     -6.394  0.2100E-02  0.1352E-03
     -6.381  0.2557E-02  0.1686E-03
     -6.368  0.3097E-02  0.2090E-03
     -6.355  0.3731E-02  0.2577E-03
     -6.342  0.4472E-02  0.3160E-03
     -6.329  0.5336E-02  0.3856E-03
     -6.316  0.6337E-02  0.4683E-03
     -6.303  0.7496E-02  0.5661E-03
     -6.290  0.8830E-02  0.6813E-03
     -6.277  0.1036E-01  0.8165E-03
     -6.264  0.1212E-01  0.9746E-03
     -6.250  0.1412E-01  0.1159E-02
     -6.237  0.1640E-01  0.1373E-02
     -6.224  0.1898E-01  0.1620E-02
     -6.211  0.2190E-01  0.1906E-02
     -6.198  0.2517E-01  0.2234E-02
     -6.185  0.2884E-01  0.2611E-02
     -6.172  0.3292E-01  0.3040E-02
     -6.159  0.3743E-01  0.3528E-02
     -6.146  0.4238E-01  0.4081E-02
     -6.133  0.4780E-01  0.4705E-02
     -6.120  0.5366E-01  0.5405E-02
     -6.107  0.5996E-01  0.6187E-02
     -6.094  0.6667E-01  0.7057E-02
     -6.081  0.7374E-01  0.8019E-02
     -6.068  0.8113E-01  0.9078E-02
     -6.055  0.8877E-01  0.1024E-01
     -6.042  0.9657E-01  0.1150E-01
     -6.029  0.1044E+00  0.1286E-01
     -6.016  0.1123E+00  0.1432E-01
     -6.003  0.1199E+00  0.1589E-01
     -5.990  0.1274E+00  0.1755E-01
     -5.977  0.1344E+00  0.1930E-01
     -5.963  0.1410E+00  0.2114E-01
     -5.950  0.1470E+00  0.2306E-01
     -5.937  0.1523E+00  0.2504E-01
     -5.924  0.1569E+00  0.2709E-01
     -5.911  0.1608E+00  0.2919E-01
     -5.898  0.1639E+00  0.3133E-01
     -5.885  0.1663E+00  0.3350E-01
     -5.872  0.1679E+00  0.3569E-01
     -5.859  0.1690E+00  0.3789E-01
     -5.846  0.1695E+00  0.4010E-01
     -5.833  0.1696E+00  0.4231E-01
     -5.820  0.1694E+00  0.4453E-01
     -5.807  0.1691E+00  0.4673E-01
     -5.794  0.1689E+00  0.4893E-01
     -5.781  0.1688E+00  0.5114E-01
     -5.768  0.1691E+00  0.5334E-01
     -5.755  0.1699E+00  0.5556E-01
     -5.742  0.1713E+00  0.5780E-01
     -5.729  0.1735E+00  0.6006E-01
     -5.716  0.1765E+00  0.6236E-01
     -5.703  0.1804E+00  0.6471E-01
     -5.689  0.1853E+00  0.6713E-01
     -5.676  0.1912E+00  0.6963E-01
     -5.663  0.1980E+00  0.7221E-01
     -5.650  0.2059E+00  0.7489E-01
     -5.637  0.2147E+00  0.7770E-01
     -5.624  0.2244E+00  0.8062E-01
     -5.611  0.2349E+00  0.8369E-01
     -5.598  0.2461E+00  0.8690E-01
     -5.585  0.2581E+00  0.9026E-01
     -5.572  0.2705E+00  0.9379E-01
     -5.559  0.2833E+00  0.9749E-01
     -5.546  0.2964E+00  0.1014E+00
     -5.533  0.3095E+00  0.1054E+00
     -5.520  0.3226E+00  0.1096E+00
     -5.507  0.3353E+00  0.1140E+00
     -5.494  0.3474E+00  0.1185E+00
     -5.481  0.3589E+00  0.1232E+00
     -5.468  0.3693E+00  0.1280E+00
     -5.455  0.3785E+00  0.1329E+00
     -5.442  0.3862E+00  0.1380E+00
     -5.429  0.3923E+00  0.1431E+00
     -5.416  0.3965E+00  0.1483E+00
     -5.402  0.3988E+00  0.1535E+00
     -5.389  0.3989E+00  0.1587E+00
     -5.376  0.3969E+00  0.1639E+00
     -5.363  0.3927E+00  0.1690E+00
     -5.350  0.3864E+00  0.1740E+00
     -5.337  0.3782E+00  0.1790E+00
     -5.324  0.3680E+00  0.1838E+00
     -5.311  0.3563E+00  0.1884E+00
     -5.298  0.3432E+00  0.1929E+00
     -5.285  0.3292E+00  0.1972E+00
     -5.272  0.3144E+00  0.2013E+00
     -5.259  0.2994E+00  0.2052E+00
     -5.246  0.2844E+00  0.2089E+00
     -5.233  0.2699E+00  0.2124E+00
     -5.220  0.2563E+00  0.2158E+00
     -5.207  0.2439E+00  0.2189E+00
     -5.194  0.2330E+00  0.2220E+00
     -5.181  0.2239E+00  0.2249E+00
     -5.168  0.2169E+00  0.2277E+00
     -5.155  0.2122E+00  0.2305E+00
     -5.142  0.2100E+00  0.2332E+00
     -5.129  0.2104E+00  0.2360E+00
     -5.115  0.2135E+00  0.2388E+00
     -5.102  0.2192E+00  0.2416E+00
     -5.089  0.2276E+00  0.2446E+00
     -5.076  0.2386E+00  0.2477E+00
     -5.063  0.2520E+00  0.2510E+00
     -5.050  0.2677E+00  0.2545E+00
     -5.037  0.2855E+00  0.2582E+00
     -5.024  0.3052E+00  0.2622E+00
     -5.011  0.3263E+00  0.2665E+00
     -4.998  0.3487E+00  0.2710E+00
     -4.985  0.3720E+00  0.2759E+00
     -4.972  0.3956E+00  0.2810E+00
     -4.959  0.4194E+00  0.2865E+00
     -4.946  0.4428E+00  0.2923E+00
     -4.933  0.4654E+00  0.2983E+00
     -4.920  0.4868E+00  0.3047E+00
     -4.907  0.5068E+00  0.3113E+00
     -4.894  0.5248E+00  0.3182E+00
     -4.881  0.5407E+00  0.3252E+00
     -4.868  0.5543E+00  0.3324E+00
     -4.855  0.5652E+00  0.3398E+00
     -4.841  0.5736E+00  0.3473E+00
     -4.828  0.5793E+00  0.3549E+00
     -4.815  0.5824E+00  0.3625E+00
     -4.802  0.5830E+00  0.3701E+00
     -4.789  0.5815E+00  0.3776E+00
     -4.776  0.5779E+00  0.3852E+00
     -4.763  0.5726E+00  0.3927E+00
     -4.750  0.5660E+00  0.4000E+00
     -4.737  0.5584E+00  0.4073E+00
     -4.724  0.5501E+00  0.4145E+00
     -4.711  0.5415E+00  0.4216E+00
     -4.698  0.5329E+00  0.4285E+00
     -4.685  0.5245E+00  0.4354E+00
     -4.672  0.5167E+00  0.4421E+00
     -4.659  0.5096E+00  0.4487E+00
     -4.646  0.5033E+00  0.4553E+00
     -4.633  0.4979E+00  0.4618E+00
     -4.620  0.4935E+00  0.4682E+00
     -4.607  0.4900E+00  0.4746E+00
     -4.594  0.4874E+00  0.4810E+00
     -4.581  0.4856E+00  0.4873E+00
     -4.568  0.4845E+00  0.4937E+00
     -4.554  0.4840E+00  0.5000E+00
     -4.541  0.4838E+00  0.5063E+00
     -4.528  0.4840E+00  0.5126E+00
     -4.515  0.4843E+00  0.5189E+00
     -4.502  0.4847E+00  0.5252E+00
     -4.489  0.4848E+00  0.5316E+00
     -4.476  0.4847E+00  0.5379E+00
     -4.463  0.4842E+00  0.5442E+00
     -4.450  0.4832E+00  0.5505E+00
     -4.437  0.4815E+00  0.5568E+00
     -4.424  0.4792E+00  0.5630E+00
     -4.411  0.4761E+00  0.5693E+00
     -4.398  0.4723E+00  0.5754E+00
     -4.385  0.4676E+00  0.5815E+00
     -4.372  0.4622E+00  0.5875E+00
     -4.359  0.4561E+00  0.5935E+00
     -4.346  0.4494E+00  0.5994E+00
     -4.333  0.4424E+00  0.6051E+00
     -4.320  0.4351E+00  0.6108E+00
     -4.307  0.4278E+00  0.6164E+00
     -4.294  0.4209E+00  0.6219E+00
     -4.281  0.4147E+00  0.6273E+00
     -4.267  0.4094E+00  0.6326E+00
     -4.254  0.4056E+00  0.6379E+00
     -4.241  0.4035E+00  0.6432E+00
     -4.228  0.4036E+00  0.6485E+00
     -4.215  0.4063E+00  0.6538E+00
     -4.202  0.4117E+00  0.6591E+00
     -4.189  0.4203E+00  0.6646E+00
     -4.176  0.4323E+00  0.6702E+00
     -4.163  0.4477E+00  0.6761E+00
     -4.150  0.4667E+00  0.6822E+00
     -4.137  0.4893E+00  0.6886E+00
     -4.124  0.5153E+00  0.6953E+00
     -4.111  0.5444E+00  0.7024E+00
     -4.098  0.5765E+00  0.7099E+00
     -4.085  0.6110E+00  0.7179E+00
     -4.072  0.6474E+00  0.7263E+00
     -4.059  0.6853E+00  0.7353E+00
     -4.046  0.7239E+00  0.7447E+00
     -4.033  0.7625E+00  0.7547E+00
     -4.020  0.8005E+00  0.7651E+00
     -4.007  0.8372E+00  0.7760E+00
     -3.993  0.8719E+00  0.7874E+00
     -3.980  0.9038E+00  0.7992E+00
     -3.967  0.9325E+00  0.8114E+00
     -3.954  0.9575E+00  0.8238E+00
     -3.941  0.9783E+00  0.8366E+00
     -3.928  0.9947E+00  0.8496E+00
     -3.915  0.1007E+01  0.8627E+00
     -3.902  0.1014E+01  0.8759E+00
     -3.889  0.1016E+01  0.8892E+00
     -3.876  0.1014E+01  0.9024E+00
     -3.863  0.1008E+01  0.9156E+00
     -3.850  0.9984E+00  0.9286E+00
     -3.837  0.9853E+00  0.9415E+00
     -3.824  0.9693E+00  0.9541E+00
     -3.811  0.9509E+00  0.9665E+00
     -3.798  0.9308E+00  0.9787E+00
     -3.785  0.9094E+00  0.9905E+00
     -3.772  0.8872E+00  0.1002E+01
     -3.759  0.8647E+00  0.1013E+01
     -3.746  0.8424E+00  0.1024E+01
     -3.733  0.8207E+00  0.1035E+01
     -3.720  0.7998E+00  0.1046E+01
     -3.706  0.7801E+00  0.1056E+01
     -3.693  0.7618E+00  0.1066E+01
     -3.680  0.7451E+00  0.1075E+01
     -3.667  0.7301E+00  0.1085E+01
     -3.654  0.7168E+00  0.1094E+01
     -3.641  0.7053E+00  0.1103E+01
     -3.628  0.6957E+00  0.1113E+01
     -3.615  0.6878E+00  0.1121E+01
     -3.602  0.6816E+00  0.1130E+01
     -3.589  0.6771E+00  0.1139E+01
     -3.576  0.6741E+00  0.1148E+01
     -3.563  0.6725E+00  0.1157E+01
     -3.550  0.6723E+00  0.1166E+01
     -3.537  0.6732E+00  0.1174E+01
     -3.524  0.6752E+00  0.1183E+01
     -3.511  0.6782E+00  0.1192E+01
     -3.498  0.6820E+00  0.1201E+01
     -3.485  0.6865E+00  0.1210E+01
     -3.472  0.6916E+00  0.1219E+01
     -3.459  0.6973E+00  0.1228E+01
     -3.446  0.7034E+00  0.1237E+01
     -3.433  0.7098E+00  0.1246E+01
     -3.419  0.7164E+00  0.1256E+01
     -3.406  0.7231E+00  0.1265E+01
     -3.393  0.7298E+00  0.1275E+01
     -3.380  0.7363E+00  0.1284E+01
     -3.367  0.7426E+00  0.1294E+01
     -3.354  0.7484E+00  0.1304E+01
     -3.341  0.7536E+00  0.1314E+01
     -3.328  0.7581E+00  0.1323E+01
     -3.315  0.7616E+00  0.1333E+01
     -3.302  0.7641E+00  0.1343E+01
     -3.289  0.7653E+00  0.1353E+01
     -3.276  0.7651E+00  0.1363E+01
     -3.263  0.7635E+00  0.1373E+01
     -3.250  0.7604E+00  0.1383E+01
     -3.237  0.7557E+00  0.1393E+01
     -3.224  0.7495E+00  0.1403E+01
     -3.211  0.7418E+00  0.1413E+01
     -3.198  0.7327E+00  0.1422E+01
     -3.185  0.7224E+00  0.1432E+01
     -3.172  0.7111E+00  0.1441E+01
     -3.159  0.6990E+00  0.1450E+01
     -3.145  0.6864E+00  0.1459E+01
     -3.132  0.6734E+00  0.1468E+01
     -3.119  0.6604E+00  0.1476E+01
     -3.106  0.6475E+00  0.1485E+01
     -3.093  0.6352E+00  0.1493E+01
     -3.080  0.6234E+00  0.1501E+01
     -3.067  0.6126E+00  0.1509E+01
     -3.054  0.6028E+00  0.1517E+01
     -3.041  0.5942E+00  0.1525E+01
     -3.028  0.5869E+00  0.1532E+01
     -3.015  0.5810E+00  0.1540E+01
     -3.002  0.5765E+00  0.1548E+01
     -2.989  0.5736E+00  0.1555E+01
     -2.976  0.5721E+00  0.1562E+01
     -2.963  0.5721E+00  0.1570E+01
     -2.950  0.5736E+00  0.1577E+01
     -2.937  0.5765E+00  0.1585E+01
     -2.924  0.5808E+00  0.1592E+01
     -2.911  0.5864E+00  0.1600E+01
     -2.898  0.5933E+00  0.1608E+01
     -2.885  0.6013E+00  0.1616E+01
     -2.872  0.6104E+00  0.1624E+01
     -2.858  0.6203E+00  0.1632E+01
     -2.845  0.6308E+00  0.1640E+01
     -2.832  0.6419E+00  0.1648E+01
     -2.819  0.6531E+00  0.1657E+01
     -2.806  0.6643E+00  0.1666E+01
     -2.793  0.6752E+00  0.1674E+01
     -2.780  0.6854E+00  0.1683E+01
     -2.767  0.6946E+00  0.1692E+01
     -2.754  0.7024E+00  0.1702E+01
     -2.741  0.7086E+00  0.1711E+01
     -2.728  0.7127E+00  0.1720E+01
     -2.715  0.7146E+00  0.1729E+01
     -2.702  0.7139E+00  0.1739E+01
     -2.689  0.7104E+00  0.1748E+01
     -2.676  0.7041E+00  0.1757E+01
     -2.663  0.6949E+00  0.1766E+01
     -2.650  0.6827E+00  0.1775E+01
     -2.637  0.6677E+00  0.1784E+01
     -2.624  0.6500E+00  0.1792E+01
     -2.611  0.6299E+00  0.1801E+01
     -2.598  0.6076E+00  0.1808E+01
     -2.585  0.5835E+00  0.1816E+01
     -2.571  0.5580E+00  0.1823E+01
     -2.558  0.5314E+00  0.1830E+01
     -2.545  0.5042E+00  0.1837E+01
     -2.532  0.4768E+00  0.1843E+01
     -2.519  0.4494E+00  0.1849E+01
     -2.506  0.4225E+00  0.1854E+01
     -2.493  0.3962E+00  0.1860E+01
     -2.480  0.3709E+00  0.1865E+01
     -2.467  0.3467E+00  0.1869E+01
     -2.454  0.3237E+00  0.1873E+01
     -2.441  0.3020E+00  0.1877E+01
     -2.428  0.2816E+00  0.1881E+01
     -2.415  0.2625E+00  0.1884E+01
     -2.402  0.2446E+00  0.1887E+01
     -2.389  0.2279E+00  0.1890E+01
     -2.376  0.2123E+00  0.1893E+01
     -2.363  0.1977E+00  0.1896E+01
     -2.350  0.1842E+00  0.1898E+01
     -2.337  0.1716E+00  0.1900E+01
     -2.324  0.1599E+00  0.1903E+01
     -2.311  0.1492E+00  0.1904E+01
     -2.297  0.1394E+00  0.1906E+01
     -2.284  0.1307E+00  0.1908E+01
     -2.271  0.1231E+00  0.1910E+01
     -2.258  0.1167E+00  0.1911E+01
     -2.245  0.1116E+00  0.1913E+01
     -2.232  0.1080E+00  0.1914E+01
     -2.219  0.1059E+00  0.1915E+01
     -2.206  0.1056E+00  0.1917E+01
     -2.193  0.1070E+00  0.1918E+01
     -2.180  0.1103E+00  0.1920E+01
     -2.167  0.1156E+00  0.1921E+01
     -2.154  0.1230E+00  0.1923E+01
     -2.141  0.1323E+00  0.1924E+01
     -2.128  0.1437E+00  0.1926E+01
     -2.115  0.1570E+00  0.1928E+01
     -2.102  0.1722E+00  0.1931E+01
     -2.089  0.1890E+00  0.1933E+01
     -2.076  0.2074E+00  0.1936E+01
     -2.063  0.2269E+00  0.1939E+01
     -2.050  0.2474E+00  0.1942E+01
     -2.037  0.2685E+00  0.1945E+01
     -2.024  0.2899E+00  0.1949E+01
     -2.010  0.3111E+00  0.1953E+01
     -1.997  0.3318E+00  0.1958E+01
     -1.984  0.3516E+00  0.1962E+01
     -1.971  0.3700E+00  0.1967E+01
     -1.958  0.3866E+00  0.1972E+01
     -1.945  0.4012E+00  0.1977E+01
     -1.932  0.4133E+00  0.1983E+01
     -1.919  0.4227E+00  0.1988E+01
     -1.906  0.4292E+00  0.1994E+01
     -1.893  0.4326E+00  0.1999E+01
     -1.880  0.4329E+00  0.2005E+01
     -1.867  0.4301E+00  0.2011E+01
     -1.854  0.4241E+00  0.2016E+01
     -1.841  0.4153E+00  0.2022E+01
     -1.828  0.4037E+00  0.2027E+01
     -1.815  0.3896E+00  0.2032E+01
     -1.802  0.3733E+00  0.2037E+01
     -1.789  0.3553E+00  0.2042E+01
     -1.776  0.3359E+00  0.2046E+01
     -1.763  0.3154E+00  0.2050E+01
     -1.750  0.2944E+00  0.2054E+01
     -1.736  0.2732E+00  0.2057E+01
     -1.723  0.2521E+00  0.2061E+01
     -1.710  0.2317E+00  0.2064E+01
     -1.697  0.2121E+00  0.2067E+01
     -1.684  0.1937E+00  0.2069E+01
     -1.671  0.1768E+00  0.2071E+01
     -1.658  0.1615E+00  0.2073E+01
     -1.645  0.1480E+00  0.2075E+01
     -1.632  0.1365E+00  0.2077E+01
     -1.619  0.1269E+00  0.2079E+01
     -1.606  0.1193E+00  0.2080E+01
     -1.593  0.1137E+00  0.2082E+01
     -1.580  0.1100E+00  0.2083E+01
     -1.567  0.1081E+00  0.2085E+01
     -1.554  0.1080E+00  0.2086E+01
     -1.541  0.1095E+00  0.2088E+01
     -1.528  0.1124E+00  0.2089E+01
     -1.515  0.1166E+00  0.2091E+01
     -1.502  0.1220E+00  0.2092E+01
     -1.489  0.1285E+00  0.2094E+01
     -1.476  0.1360E+00  0.2096E+01
     -1.463  0.1443E+00  0.2097E+01
     -1.449  0.1535E+00  0.2099E+01
     -1.436  0.1636E+00  0.2102E+01
     -1.423  0.1745E+00  0.2104E+01
     -1.410  0.1864E+00  0.2106E+01
     -1.397  0.1994E+00  0.2109E+01
     -1.384  0.2137E+00  0.2112E+01
     -1.371  0.2295E+00  0.2115E+01
     -1.358  0.2469E+00  0.2118E+01
     -1.345  0.2664E+00  0.2121E+01
     -1.332  0.2880E+00  0.2125E+01
     -1.319  0.3121E+00  0.2129E+01
     -1.306  0.3390E+00  0.2134E+01
     -1.293  0.3687E+00  0.2138E+01
     -1.280  0.4015E+00  0.2144E+01
     -1.267  0.4374E+00  0.2149E+01
     -1.254  0.4764E+00  0.2156E+01
     -1.241  0.5185E+00  0.2162E+01
     -1.228  0.5635E+00  0.2170E+01
     -1.215  0.6112E+00  0.2178E+01
     -1.202  0.6612E+00  0.2186E+01
     -1.189  0.7132E+00  0.2196E+01
     -1.176  0.7665E+00  0.2206E+01
     -1.162  0.8207E+00  0.2216E+01
     -1.149  0.8752E+00  0.2228E+01
     -1.136  0.9293E+00  0.2240E+01
     -1.123  0.9824E+00  0.2253E+01
     -1.110  0.1034E+01  0.2266E+01
     -1.097  0.1083E+01  0.2280E+01
     -1.084  0.1129E+01  0.2295E+01
     -1.071  0.1172E+01  0.2310E+01
     -1.058  0.1211E+01  0.2326E+01
     -1.045  0.1245E+01  0.2342E+01
     -1.032  0.1275E+01  0.2359E+01
     -1.019  0.1300E+01  0.2376E+01
     -1.006  0.1320E+01  0.2393E+01
     -0.993  0.1335E+01  0.2411E+01
     -0.980  0.1345E+01  0.2428E+01
     -0.967  0.1350E+01  0.2446E+01
     -0.954  0.1350E+01  0.2463E+01
     -0.941  0.1346E+01  0.2481E+01
     -0.928  0.1338E+01  0.2498E+01
     -0.915  0.1326E+01  0.2516E+01
     -0.902  0.1310E+01  0.2533E+01
     -0.888  0.1291E+01  0.2550E+01
     -0.875  0.1270E+01  0.2566E+01
     -0.862  0.1247E+01  0.2582E+01
     -0.849  0.1222E+01  0.2598E+01
     -0.836  0.1196E+01  0.2614E+01
     -0.823  0.1169E+01  0.2629E+01
     -0.810  0.1141E+01  0.2644E+01
     -0.797  0.1114E+01  0.2659E+01
     -0.784  0.1087E+01  0.2673E+01
     -0.771  0.1060E+01  0.2687E+01
     -0.758  0.1035E+01  0.2700E+01
     -0.745  0.1010E+01  0.2713E+01
     -0.732  0.9867E+00  0.2726E+01
     -0.719  0.9645E+00  0.2739E+01
     -0.706  0.9436E+00  0.2751E+01
     -0.693  0.9238E+00  0.2763E+01
     -0.680  0.9052E+00  0.2775E+01
     -0.667  0.8874E+00  0.2787E+01
     -0.654  0.8703E+00  0.2798E+01
     -0.641  0.8536E+00  0.2809E+01
     -0.628  0.8370E+00  0.2820E+01
     -0.615  0.8202E+00  0.2831E+01
     -0.601  0.8028E+00  0.2841E+01
     -0.588  0.7845E+00  0.2851E+01
     -0.575  0.7652E+00  0.2861E+01
     -0.562  0.7445E+00  0.2871E+01
     -0.549  0.7222E+00  0.2881E+01
     -0.536  0.6984E+00  0.2890E+01
     -0.523  0.6730E+00  0.2898E+01
     -0.510  0.6462E+00  0.2907E+01
     -0.497  0.6180E+00  0.2915E+01
     -0.484  0.5888E+00  0.2923E+01
     -0.471  0.5590E+00  0.2930E+01
     -0.458  0.5289E+00  0.2937E+01
     -0.445  0.4992E+00  0.2943E+01
     -0.432  0.4703E+00  0.2949E+01
     -0.419  0.4428E+00  0.2955E+01
     -0.406  0.4172E+00  0.2961E+01
     -0.393  0.3943E+00  0.2966E+01
     -0.380  0.3744E+00  0.2971E+01
     -0.367  0.3580E+00  0.2975E+01
     -0.354  0.3457E+00  0.2980E+01
     -0.341  0.3377E+00  0.2984E+01
     -0.328  0.3343E+00  0.2989E+01
     -0.314  0.3358E+00  0.2993E+01
     -0.301  0.3420E+00  0.2997E+01
     -0.288  0.3531E+00  0.3002E+01
     -0.275  0.3689E+00  0.3007E+01
     -0.262  0.3891E+00  0.3012E+01
     -0.249  0.4135E+00  0.3017E+01
     -0.236  0.4415E+00  0.3023E+01
     -0.223  0.4726E+00  0.3029E+01
     -0.210  0.5063E+00  0.3036E+01
     -0.197  0.5419E+00  0.3043E+01
     -0.184  0.5787E+00  0.3051E+01
     -0.171  0.6160E+00  0.3059E+01
     -0.158  0.6529E+00  0.3067E+01
     -0.145  0.6887E+00  0.3076E+01
     -0.132  0.7227E+00  0.3085E+01
     -0.119  0.7541E+00  0.3095E+01
     -0.106  0.7822E+00  0.3106E+01
     -0.093  0.8064E+00  0.3116E+01
     -0.080  0.8262E+00  0.3127E+01
     -0.067  0.8411E+00  0.3138E+01
     -0.054  0.8509E+00  0.3149E+01
     -0.040  0.8552E+00  0.3160E+01
     -0.027  0.8539E+00  0.3171E+01
     -0.014  0.8472E+00  0.3182E+01
     -0.001  0.8352E+00  0.3193E+01
      0.012  0.8181E+00  0.3204E+01
      0.025  0.7963E+00  0.3214E+01
      0.038  0.7702E+00  0.3224E+01
      0.051  0.7406E+00  0.3234E+01
      0.064  0.7079E+00  0.3243E+01
      0.077  0.6729E+00  0.3252E+01
      0.090  0.6362E+00  0.3260E+01
      0.103  0.5986E+00  0.3268E+01
      0.116  0.5608E+00  0.3275E+01
      0.129  0.5234E+00  0.3282E+01
      0.142  0.4870E+00  0.3289E+01
      0.155  0.4523E+00  0.3294E+01
      0.168  0.4197E+00  0.3300E+01
      0.181  0.3895E+00  0.3305E+01
      0.194  0.3622E+00  0.3310E+01
      0.207  0.3379E+00  0.3314E+01
      0.220  0.3167E+00  0.3318E+01
      0.233  0.2988E+00  0.3322E+01
      0.247  0.2842E+00  0.3326E+01
      0.260  0.2727E+00  0.3329E+01
      0.273  0.2641E+00  0.3333E+01
      0.286  0.2584E+00  0.3336E+01
      0.299  0.2553E+00  0.3340E+01
      0.312  0.2545E+00  0.3343E+01
      0.325  0.2558E+00  0.3346E+01
      0.338  0.2589E+00  0.3350E+01
      0.351  0.2634E+00  0.3353E+01
      0.364  0.2691E+00  0.3357E+01
      0.377  0.2757E+00  0.3360E+01
      0.390  0.2829E+00  0.3364E+01
      0.403  0.2905E+00  0.3368E+01
      0.416  0.2981E+00  0.3372E+01
      0.429  0.3055E+00  0.3375E+01
      0.442  0.3125E+00  0.3380E+01
      0.455  0.3188E+00  0.3384E+01
      0.468  0.3243E+00  0.3388E+01
      0.481  0.3287E+00  0.3392E+01
      0.494  0.3320E+00  0.3397E+01
      0.507  0.3340E+00  0.3401E+01
      0.520  0.3346E+00  0.3405E+01
      0.534  0.3339E+00  0.3410E+01
      0.547  0.3318E+00  0.3414E+01
      0.560  0.3283E+00  0.3418E+01
      0.573  0.3238E+00  0.3422E+01
      0.586  0.3181E+00  0.3427E+01
      0.599  0.3117E+00  0.3431E+01
      0.612  0.3047E+00  0.3435E+01
      0.625  0.2973E+00  0.3439E+01
      0.638  0.2899E+00  0.3442E+01
      0.651  0.2827E+00  0.3446E+01
      0.664  0.2760E+00  0.3450E+01
      0.677  0.2700E+00  0.3453E+01
      0.690  0.2649E+00  0.3457E+01
      0.703  0.2610E+00  0.3460E+01
      0.716  0.2583E+00  0.3463E+01
      0.729  0.2570E+00  0.3467E+01
      0.742  0.2569E+00  0.3470E+01
      0.755  0.2582E+00  0.3473E+01
      0.768  0.2605E+00  0.3477E+01
      0.781  0.2639E+00  0.3480E+01
      0.794  0.2680E+00  0.3484E+01
      0.808  0.2726E+00  0.3487E+01
      0.821  0.2776E+00  0.3491E+01
      0.834  0.2826E+00  0.3495E+01
      0.847  0.2873E+00  0.3498E+01
      0.860  0.2916E+00  0.3502E+01
      0.873  0.2953E+00  0.3506E+01
      0.886  0.2982E+00  0.3510E+01
      0.899  0.3002E+00  0.3514E+01
      0.912  0.3013E+00  0.3518E+01
      0.925  0.3015E+00  0.3522E+01
      0.938  0.3009E+00  0.3526E+01
      0.951  0.2996E+00  0.3530E+01
      0.964  0.2978E+00  0.3533E+01
      0.977  0.2956E+00  0.3537E+01
      0.990  0.2933E+00  0.3541E+01
      1.003  0.2911E+00  0.3545E+01
      1.016  0.2891E+00  0.3549E+01
      1.029  0.2876E+00  0.3552E+01
      1.042  0.2867E+00  0.3556E+01
      1.055  0.2864E+00  0.3560E+01
      1.068  0.2869E+00  0.3564E+01
      1.081  0.2881E+00  0.3567E+01
      1.095  0.2899E+00  0.3571E+01
      1.108  0.2924E+00  0.3575E+01
      1.121  0.2953E+00  0.3579E+01
      1.134  0.2985E+00  0.3583E+01
      1.147  0.3019E+00  0.3587E+01
      1.160  0.3053E+00  0.3591E+01
      1.173  0.3086E+00  0.3595E+01
      1.186  0.3116E+00  0.3599E+01
      1.199  0.3144E+00  0.3603E+01
      1.212  0.3169E+00  0.3607E+01
      1.225  0.3192E+00  0.3611E+01
      1.238  0.3213E+00  0.3615E+01
      1.251  0.3236E+00  0.3620E+01
      1.264  0.3262E+00  0.3624E+01
      1.277  0.3294E+00  0.3628E+01
      1.290  0.3335E+00  0.3633E+01
      1.303  0.3389E+00  0.3637E+01
      1.316  0.3459E+00  0.3641E+01
      1.329  0.3549E+00  0.3646E+01
      1.342  0.3661E+00  0.3651E+01
      1.355  0.3798E+00  0.3656E+01
      1.368  0.3961E+00  0.3661E+01
      1.382  0.4153E+00  0.3666E+01
      1.395  0.4372E+00  0.3672E+01
      1.408  0.4619E+00  0.3678E+01
      1.421  0.4893E+00  0.3685E+01
      1.434  0.5189E+00  0.3691E+01
      1.447  0.5507E+00  0.3698E+01
      1.460  0.5842E+00  0.3706E+01
      1.473  0.6190E+00  0.3714E+01
      1.486  0.6547E+00  0.3723E+01
      1.499  0.6908E+00  0.3732E+01
      1.512  0.7270E+00  0.3741E+01
      1.525  0.7628E+00  0.3751E+01
      1.538  0.7978E+00  0.3762E+01
      1.551  0.8317E+00  0.3772E+01
      1.564  0.8644E+00  0.3784E+01
      1.577  0.8954E+00  0.3795E+01
      1.590  0.9248E+00  0.3807E+01
      1.603  0.9523E+00  0.3820E+01
      1.616  0.9780E+00  0.3833E+01
      1.629  0.1002E+01  0.3846E+01
      1.642  0.1023E+01  0.3859E+01
      1.656  0.1043E+01  0.3873E+01
      1.669  0.1061E+01  0.3886E+01
      1.682  0.1076E+01  0.3901E+01
      1.695  0.1090E+01  0.3915E+01
      1.708  0.1101E+01  0.3929E+01
      1.721  0.1109E+01  0.3944E+01
      1.734  0.1115E+01  0.3958E+01
      1.747  0.1118E+01  0.3973E+01
      1.760  0.1119E+01  0.3987E+01
      1.773  0.1116E+01  0.4002E+01
      1.786  0.1110E+01  0.4016E+01
      1.799  0.1100E+01  0.4031E+01
      1.812  0.1088E+01  0.4045E+01
      1.825  0.1072E+01  0.4059E+01
      1.838  0.1052E+01  0.4073E+01
      1.851  0.1030E+01  0.4086E+01
      1.864  0.1004E+01  0.4099E+01
      1.877  0.9765E+00  0.4112E+01
      1.890  0.9464E+00  0.4124E+01
      1.903  0.9145E+00  0.4136E+01
      1.916  0.8813E+00  0.4148E+01
      1.929  0.8473E+00  0.4159E+01
      1.943  0.8129E+00  0.4169E+01
      1.956  0.7787E+00  0.4179E+01
      1.969  0.7452E+00  0.4189E+01
      1.982  0.7131E+00  0.4199E+01
      1.995  0.6827E+00  0.4207E+01
      2.008  0.6546E+00  0.4216E+01
      2.021  0.6294E+00  0.4224E+01
      2.034  0.6074E+00  0.4232E+01
      2.047  0.5892E+00  0.4240E+01
      2.060  0.5752E+00  0.4247E+01
      2.073  0.5658E+00  0.4255E+01
      2.086  0.5614E+00  0.4262E+01
      2.099  0.5624E+00  0.4269E+01
      2.112  0.5690E+00  0.4277E+01
      2.125  0.5816E+00  0.4284E+01
      2.138  0.6004E+00  0.4292E+01
      2.151  0.6255E+00  0.4300E+01
      2.164  0.6570E+00  0.4309E+01
      2.177  0.6948E+00  0.4318E+01
      2.190  0.7388E+00  0.4328E+01
      2.203  0.7888E+00  0.4338E+01
      2.217  0.8445E+00  0.4349E+01
      2.230  0.9052E+00  0.4361E+01
      2.243  0.9705E+00  0.4373E+01
      2.256  0.1039E+01  0.4387E+01
      2.269  0.1111E+01  0.4401E+01
      2.282  0.1185E+01  0.4417E+01
      2.295  0.1260E+01  0.4433E+01
      2.308  0.1335E+01  0.4451E+01
      2.321  0.1408E+01  0.4469E+01
      2.334  0.1478E+01  0.4488E+01
      2.347  0.1545E+01  0.4509E+01
      2.360  0.1607E+01  0.4530E+01
      2.373  0.1663E+01  0.4551E+01
      2.386  0.1712E+01  0.4574E+01
      2.399  0.1753E+01  0.4596E+01
      2.412  0.1785E+01  0.4620E+01
      2.425  0.1808E+01  0.4643E+01
      2.438  0.1822E+01  0.4667E+01
      2.451  0.1826E+01  0.4691E+01
      2.464  0.1820E+01  0.4715E+01
      2.477  0.1805E+01  0.4738E+01
      2.490  0.1780E+01  0.4761E+01
      2.504  0.1747E+01  0.4784E+01
      2.517  0.1705E+01  0.4806E+01
      2.530  0.1657E+01  0.4828E+01
      2.543  0.1602E+01  0.4849E+01
      2.556  0.1543E+01  0.4869E+01
      2.569  0.1479E+01  0.4888E+01
      2.582  0.1414E+01  0.4907E+01
      2.595  0.1346E+01  0.4924E+01
      2.608  0.1279E+01  0.4941E+01
      2.621  0.1212E+01  0.4957E+01
      2.634  0.1148E+01  0.4972E+01