    2    2    1    1
  0.2001288E+02  0.3839590E-09  0.3839590E-09  0.3839590E-09  0.5000000E-15
  1.000000000000000E-004
  CAR 
 Si                                      
      8     29      8
 
  0.0000000E+00  0.0000000E+00  0.0000000E+00  0.1953125E-02
    1       -6.129138   1.000000
    2        5.831162   0.978037
    3        5.831162   0.978037
    4        5.831162   0.978037
    5        8.396473   0.000000
    6        8.396473   0.000000
    7        8.396473   0.000000
    8        9.209640   0.000000
 
  0.1250000E+00  0.0000000E+00  0.0000000E+00  0.1562500E-01
    1       -5.924923   1.000000
    2        4.234199   1.000000
    3        5.542567   0.999975
    4        5.542567   0.999975
    5        8.337173   0.000000
    6        8.820715   0.000000
    7        8.820715   0.000000
    8       10.551909   0.000000
 
  0.2500000E+00  0.0000000E+00  0.0000000E+00  0.1562500E-01
    1       -5.329125   1.000000
    2        1.906357   1.000000
    3        5.072359   1.000000
    4        5.072359   1.000000
    5        7.864337   0.000000
    6        9.338318   0.000000
    7        9.338318   0.000000
    8       12.758291   0.000000
 
  0.3750000E+00  0.0000000E+00  0.0000000E+00  0.1562500E-01
    1       -4.435037   1.000000
    2       -0.113849   1.000000
    3        4.745688   1.000000
    4        4.745688   1.000000
    5        7.500841   0.000000
    6        9.282475   0.000000
    7        9.282475   0.000000
    8       13.716623   0.000000
 
  0.5000000E+00  0.0000000E+00  0.0000000E+00  0.7812500E-02
    1       -3.796827   1.000000
    2       -1.136527   1.000000
    3        4.633945   1.000000
    4        4.633946   1.000000
    5        7.372878   0.000000
    6        9.170996   0.000000
    7        9.170996   0.000000
    8       13.561074   0.000000
 
  0.1250000E+00  0.1250000E+00  0.0000000E+00  0.1171875E-01
    1       -5.856106   1.000000
    2        4.499717   1.000000
    3        5.025136   1.000000
    4        5.025136   1.000000
    5        7.844549   0.000000
    6        9.536490   0.000000
    7        9.536490   0.000000
    8       10.238409   0.000000
 
  0.2500000E+00  0.1250000E+00  0.0000000E+00  0.4687500E-01
    1       -5.387249   1.000000
    2        2.609558   1.000000
    3        4.513746   1.000000
    4        4.590172   1.000000
    5        7.980513   0.000000
    6        9.544190   0.000000
    7       10.300633   0.000000
    8       10.581808   0.000000
 
  0.3750000E+00  0.1250000E+00  0.0000000E+00  0.4687500E-01
    1       -4.571990   1.000000
    2        0.548781   1.000000
    3        3.998920   1.000000
    4        4.245931   1.000000
    5        8.080127   0.000000
    6        9.475720   0.000000
    7       10.296117   0.000000
    8       11.299225   0.000000
 
  0.5000000E+00  0.1250000E+00  0.0000000E+00  0.4687500E-01
    1       -3.710177   1.000000
    2       -0.914991   1.000000
    3        3.553308   1.000000
    4        4.270546   1.000000
    5        8.027366   0.000000
    6        9.347410   0.000000
    7        9.931805   0.000000
    8       13.203374   0.000000
 
 -0.3750000E+00  0.1250000E+00  0.0000000E+00  0.4687500E-01
    1       -3.954840   1.000000
    2       -0.544226   1.000000
    3        3.371494   1.000000
    4        4.567007   1.000000
    5        8.194674   0.000000
    6        9.455184   0.000000
    7        9.700034   0.000000
    8       13.751520   0.000000
 
 -0.2500000E+00  0.1250000E+00  0.0000000E+00  0.4687500E-01
    1       -4.878420   1.000000
    2        1.208121   1.000000
    3        3.522088   1.000000
    4        5.058348   1.000000
    5        8.554152   0.000000
    6        9.509908   0.000000
    7        9.688132   0.000000
    8       12.133903   0.000000
 
 -0.1250000E+00  0.1250000E+00  0.0000000E+00  0.2343750E-01
    1       -5.588569   1.000000
    2        3.149721   1.000000
    3        4.203797   1.000000
    4        5.538980   0.999978
    5        8.878546   0.000000
    6        8.957354   0.000000
    7        9.191564   0.000000
    8       11.386810   0.000000
 
  0.2500000E+00  0.2500000E+00  0.0000000E+00  0.1171875E-01
    1       -5.046735   1.000000
    2        2.317254   1.000000
    3        3.942738   1.000000
    4        3.942738   1.000000
    5        6.962282   0.000000
    6        8.964722   0.000000
    7       11.590019   0.000000
    8       11.590019   0.000000
 
  0.3750000E+00  0.2500000E+00  0.0000000E+00  0.4687500E-01
    1       -4.336468   1.000000
    2        0.893391   1.000000
    3        3.162215   1.000000
    4        3.624756   1.000000
    5        7.182560   0.000000
    6        8.725899   0.000000
    7       11.831960   0.000000
    8       12.101263   0.000000
 
  0.5000000E+00  0.2500000E+00  0.0000000E+00  0.4687500E-01
    1       -3.410066   1.000000
    2       -0.548979   1.000000
    3        2.298742   1.000000
    4        3.627999   1.000000
    5        7.351503   0.000000
    6       10.279172   0.000000
    7       11.580668   0.000000
    8       11.750958   0.000000
 
 -0.3750000E+00  0.2500000E+00  0.0000000E+00  0.4687500E-01
    1       -3.205674   1.000000
    2       -0.807512   1.000000
    3        1.840136   1.000000
    4        3.946419   1.000000
    5        7.676259   0.000000
    6       11.297164   0.000000
    7       11.312412   0.000000
    8       12.793753   0.000000
 
 -0.2500000E+00  0.2500000E+00  0.0000000E+00  0.2343750E-01
    1       -4.084561   1.000000
    2        0.353653   1.000000
    3        2.080118   1.000000
    4        4.504809   1.000000
    5        8.282638   0.000000
    6       10.623169   0.000000
    7       10.964004   0.000000
    8       11.984144   0.000000
 
  0.3750000E+00  0.3750000E+00  0.0000000E+00  0.1171875E-01
    1       -3.733755   1.000000
    2        0.088862   1.000000
    3        3.226523   1.000000
    4        3.226523   1.000000
    5        6.446587   0.009722
    6        7.370522   0.000000
    7       13.874609   0.000000
    8       13.874609   0.000000
 
  0.5000000E+00  0.3750000E+00  0.0000000E+00  0.4687500E-01
    1       -2.836127   1.000000
    2       -0.996360   1.000000
    3        2.397163   1.000000
    4        3.150430   1.000000
    5        6.725653   0.000008
    6        7.798557   0.000000
    7       14.099325   0.000000
    8       14.189729   0.000000
 
 -0.3750000E+00  0.3750000E+00  0.0000000E+00  0.2343750E-01
    1       -2.397083   1.000000
    2       -1.393156   1.000000
    3        1.530873   1.000000
    4        3.407961   1.000000
    5        7.035200   0.000000
    6        9.959875   0.000000
    7       13.303976   0.000000
    8       13.845923   0.000000
 
  0.5000000E+00  0.5000000E+00  0.0000000E+00  0.5859375E-02
    1       -1.983310   1.000000
    2       -1.983310   1.000000
    3        2.980996   1.000000
    4        2.980996   1.000000
    5        6.540731   0.001338
    6        6.540731   0.001338
    7       15.950227   0.000000
    8       15.950227   0.000000
 
  0.3750000E+00  0.2500000E+00  0.1250000E+00  0.4687500E-01
    1       -4.799216   1.000000
    2        1.544578   1.000000
    3        3.119696   1.000000
    4        4.404974   1.000000
    5        8.279860   0.000000
    6        9.737814   0.000000
    7       10.024129   0.000000
    8       11.334540   0.000000
 
  0.5000000E+00  0.2500000E+00  0.1250000E+00  0.9375000E-01
    1       -3.910571   1.000000
    2       -0.007692   1.000000
    3        2.511986   1.000000
    4        3.903471   1.000000
    5        8.709669   0.000000
    6        9.386598   0.000000
    7       10.851949   0.000000
    8       11.768549   0.000000
 
 -0.3750000E+00  0.2500000E+00  0.1250000E+00  0.4687500E-01
    1       -3.257903   1.000000
    2       -0.953096   1.000000
    3        2.383265   1.000000
    4        3.673777   1.000000
    5        8.900930   0.000000
    6        8.962813   0.000000
    7       11.744143   0.000000
    8       12.949076   0.000000
 
  0.5000000E+00  0.3750000E+00  0.1250000E+00  0.4687500E-01
    1       -3.535068   1.000000
    2       -0.130092   1.000000
    3        2.470726   1.000000
    4        3.073640   1.000000
    5        7.778895   0.000000
    6        8.477513   0.000000
    7       11.587498   0.000000
    8       13.823647   0.000000
 
 -0.3750000E+00  0.3750000E+00  0.1250000E+00  0.9375000E-01
    1       -2.659908   1.000000
    2       -1.098346   1.000000
    3        1.772369   1.000000
    4        2.872894   1.000000
    5        8.219950   0.000000
    6       10.111781   0.000000
    7       11.110856   0.000000
    8       13.273380   0.000000
 
 -0.2500000E+00  0.3750000E+00  0.1250000E+00  0.4687500E-01
    1       -3.010663   1.000000
    2       -0.735052   1.000000
    3        1.605449   1.000000
    4        3.248878   1.000000
    5        8.699968   0.000000
    6       10.376236   0.000000
    7       11.047681   0.000000
    8       12.862072   0.000000
 
 -0.3750000E+00  0.5000000E+00  0.1250000E+00  0.2343750E-01
    1       -1.905228   1.000000
    2       -1.905228   1.000000
    3        2.416253   1.000000
    4        2.416253   1.000000
    5        7.801897   0.000000
    6        7.801897   0.000000
    7       13.680446   0.000000
    8       13.680446   0.000000
 
 -0.2500000E+00  0.5000000E+00  0.2500000E+00  0.1171875E-01
    1       -1.819274   1.000000
    2       -1.819274   1.000000
    3        1.980044   1.000000
    4        1.980044   1.000000
    5       10.099024   0.000000
    6       10.099024   0.000000
    7       10.838031   0.000000
    8       10.838031   0.000000
