       N       E                     dE             d eps       ncg     rms          rms(c)
DAV:   1    -0.108407507149E+02   -0.10841E+02   -0.33466E-11   344   0.385E-05    0.332E-06
DAV:   2    -0.108407507146E+02    0.35880E-09   -0.27131E-12   336   0.129E-05
   1 F= -.10840751E+02 E0= -.10840656E+02  d E =-.189700E-03
