 vasp.5.4.4.18Apr17-6-g9f103f2a35 (build Oct 19 2023 15:45:47) complex          
  
 executed on             LinuxIFC date 2023.12.27  06:54:03
 running on    4 total cores
 distrk:  each k-point on    4 cores,    1 groups
 distr:  one band on NCORES_PER_BAND=   1 cores,    4 groups


--------------------------------------------------------------------------------------------------------


 INCAR:
 POTCAR:   PAW_PBE Si 05Jan2001                   
 POTCAR:   PAW_PBE Si 05Jan2001                   
   VRHFIN =Si: s2p2                                                             
   LEXCH  = PE                                                                  
   EATOM  =   103.0669 eV,    7.5752 Ry                                         
                                                                                
   TITEL  = PAW_PBE Si 05Jan2001                                                
   LULTRA =        F    use ultrasoft PP ?                                      
   IUNSCR =        1    unscreen: 0-lin 1-nonlin 2-no                           
   RPACOR =    1.500    partial core radius                                     
   POMASS =   28.085; ZVAL   =    4.000    mass and valenz                      
   RCORE  =    1.900    outmost cutoff radius                                   
   RWIGS  =    2.480; RWIGS  =    1.312    wigner-seitz radius (au A)           
   ENMAX  =  245.345; ENMIN  =  184.009 eV                                      
   ICORE  =        2    local potential                                         
   LCOR   =        T    correct aug charges                                     
   LPAW   =        T    paw PP                                                  
   EAUG   =  322.069                                                            
   DEXC   =    -.007                                                            
   RMAX   =    2.944    core radius for proj-oper                               
   RAUG   =    1.300    factor for augmentation sphere                          
   RDEP   =    1.993    radius for radial grids                                 
   QCUT   =   -4.246; QGAM   =    8.493    optimization parameters              
                                                                                
   Description                                                                  
     l     E      TYP  RCUT    TYP  RCUT                                        
     0   .000     23  1.900                                                     
     0   .000     23  1.900                                                     
     1   .000     23  1.900                                                     
     1   .000     23  1.900                                                     
     2   .000      7  1.900                                                     
  local pseudopotential read in
  partial core-charges read in
  atomic valenz-charges read in
  non local Contribution for L=           0  read in
    real space projection operators read in
  non local Contribution for L=           0  read in
    real space projection operators read in
  non local Contribution for L=           1  read in
    real space projection operators read in
  non local Contribution for L=           1  read in
    real space projection operators read in
    PAW grid and wavefunctions read in
 
   number of l-projection  operators is LMAX  =           4
   number of lm-projection operators is LMMAX =           8
 
 PAW_PBE Si 05Jan2001                   :
 energy of atom  1       EATOM= -103.0669
 kinetic energy error for atom=    0.0006 (will be added to EATOM!!)
 
 
 POSCAR: system Si                               
  positions in direct lattice
  velocities in cartesian coordinates
 exchange correlation table for  LEXCH =        8
   RHO(1)=    0.500       N(1)  =     2000
   RHO(2)=  100.500       N(2)  =     4000
 


--------------------------------------------------------------------------------------------------------


 ion  position               nearest neighbor table
   1  0.000  0.000  0.000-   2 2.35   2 2.35   2 2.35   2 2.35
   2  0.250  0.250  0.250-   1 2.35   1 2.35   1 2.35   1 2.35
 
  LATTYP: Found a face centered cubic cell.
 ALAT       =     5.4300000000
  
  Lattice vectors:
  
 A1 = (   2.7150000000,   2.7150000000,   0.0000000000)
 A2 = (   0.0000000000,   2.7150000000,   2.7150000000)
 A3 = (   2.7150000000,   0.0000000000,   2.7150000000)


Analysis of symmetry for initial positions (statically):
=====================================================================
 Subroutine PRICEL returns:
 Original cell was already a primitive cell.
 

 Routine SETGRP: Setting up the symmetry group for a 
 face centered cubic supercell.


 Subroutine GETGRP returns: Found 48 space group operations
 (whereof 24 operations were pure point group operations)
 out of a pool of 48 trial point group operations.


The static configuration has the point symmetry T_d .
 The point group associated with its full space group is O_h .


Analysis of symmetry for dynamics (positions and initial velocities):
=====================================================================
 Subroutine PRICEL returns:
 Original cell was already a primitive cell.
 

 Routine SETGRP: Setting up the symmetry group for a 
 face centered cubic supercell.


 Subroutine GETGRP returns: Found 48 space group operations
 (whereof 24 operations were pure point group operations)
 out of a pool of 48 trial point group operations.


The dynamic configuration has the point symmetry T_d .
 The point group associated with its full space group is O_h .


 Subroutine INISYM returns: Found 48 space group operations
 (whereof 24 operations are pure point group operations),
 and found     1 'primitive' translations

 
 
 KPOINTS: Automatic 8x8x8                         

Automatic generation of k-mesh.
Space group operators:
 irot       det(A)        alpha          n_x          n_y          n_z        tau_x        tau_y        tau_z
    1     1.000000     0.000001     1.000000     0.000000     0.000000     0.000000     0.000000     0.000000
    2     1.000000   120.000000    -0.577350    -0.577350    -0.577350     0.000000     0.000000     0.000000
    3     1.000000   120.000000     0.577350     0.577350     0.577350     0.000000     0.000000     0.000000
    4    -1.000000    90.000000     0.000000    -1.000000     0.000000     0.000000     0.000000     0.000000
    5    -1.000000   180.000000     0.707107     0.707107     0.000000     0.000000     0.000000     0.000000
    6    -1.000000    90.000000     1.000000     0.000000     0.000000     0.000000     0.000000     0.000000
    7     1.000000   180.000000     0.000000     1.000000     0.000000     0.000000     0.000000     0.000000
    8     1.000000   120.000000     0.577350     0.577350    -0.577350     0.000000     0.000000     0.000000
    9     1.000000   120.000000     0.577350    -0.577350    -0.577350     0.000000     0.000000     0.000000
   10    -1.000000    90.000000     0.000000     1.000000     0.000000     0.000000     0.000000     0.000000
   11    -1.000000    90.000000     0.000000     0.000000    -1.000000     0.000000     0.000000     0.000000
   12    -1.000000   180.000000     0.000000     0.707107     0.707107     0.000000     0.000000     0.000000
   13     1.000000   120.000000    -0.577350     0.577350     0.577350     0.000000     0.000000     0.000000
   14     1.000000   120.000000    -0.577350     0.577350    -0.577350     0.000000     0.000000     0.000000
   15     1.000000   180.000000     0.000000     0.000000     1.000000     0.000000     0.000000     0.000000
   16    -1.000000    90.000000    -1.000000     0.000000     0.000000     0.000000     0.000000     0.000000
   17    -1.000000   180.000000     0.707107     0.000000     0.707107     0.000000     0.000000     0.000000
   18    -1.000000    90.000000     0.000000     0.000000     1.000000     0.000000     0.000000     0.000000
   19     1.000000   120.000000    -0.577350    -0.577350     0.577350     0.000000     0.000000     0.000000
   20     1.000000   180.000000     1.000000     0.000000     0.000000     0.000000     0.000000     0.000000
   21     1.000000   120.000000     0.577350    -0.577350     0.577350     0.000000     0.000000     0.000000
   22    -1.000000   180.000000     0.707107    -0.707107     0.000000     0.000000     0.000000     0.000000
   23    -1.000000   180.000000     0.707107     0.000000    -0.707107     0.000000     0.000000     0.000000
   24    -1.000000   180.000000     0.000000    -0.707107     0.707107     0.000000     0.000000     0.000000
   25    -1.000000     0.000001     1.000000     0.000000     0.000000     0.250000     0.250000     0.250000
   26    -1.000000   120.000000    -0.577350    -0.577350    -0.577350     0.250000     0.250000     0.250000
   27    -1.000000   120.000000     0.577350     0.577350     0.577350     0.250000     0.250000     0.250000
   28     1.000000    90.000000     0.000000    -1.000000     0.000000     0.250000     0.250000     0.250000
   29     1.000000   180.000000     0.707107     0.707107     0.000000     0.250000     0.250000     0.250000
   30     1.000000    90.000000     1.000000     0.000000     0.000000     0.250000     0.250000     0.250000
   31    -1.000000   180.000000     0.000000     1.000000     0.000000     0.250000     0.250000     0.250000
   32    -1.000000   120.000000     0.577350     0.577350    -0.577350     0.250000     0.250000     0.250000
   33    -1.000000   120.000000     0.577350    -0.577350    -0.577350     0.250000     0.250000     0.250000
   34     1.000000    90.000000     0.000000     1.000000     0.000000     0.250000     0.250000     0.250000
   35     1.000000    90.000000     0.000000     0.000000    -1.000000     0.250000     0.250000     0.250000
   36     1.000000   180.000000     0.000000     0.707107     0.707107     0.250000     0.250000     0.250000
   37    -1.000000   120.000000    -0.577350     0.577350     0.577350     0.250000     0.250000     0.250000
   38    -1.000000   120.000000    -0.577350     0.577350    -0.577350     0.250000     0.250000     0.250000
   39    -1.000000   180.000000     0.000000     0.000000     1.000000     0.250000     0.250000     0.250000
   40     1.000000    90.000000    -1.000000     0.000000     0.000000     0.250000     0.250000     0.250000
   41     1.000000   180.000000     0.707107     0.000000     0.707107     0.250000     0.250000     0.250000
   42     1.000000    90.000000     0.000000     0.000000     1.000000     0.250000     0.250000     0.250000
   43    -1.000000   120.000000    -0.577350    -0.577350     0.577350     0.250000     0.250000     0.250000
   44    -1.000000   180.000000     1.000000     0.000000     0.000000     0.250000     0.250000     0.250000
   45    -1.000000   120.000000     0.577350    -0.577350     0.577350     0.250000     0.250000     0.250000
   46     1.000000   180.000000     0.707107    -0.707107     0.000000     0.250000     0.250000     0.250000
   47     1.000000   180.000000     0.707107     0.000000    -0.707107     0.250000     0.250000     0.250000
   48     1.000000   180.000000     0.000000    -0.707107     0.707107     0.250000     0.250000     0.250000
 
 Subroutine IBZKPT returns following result:
 ===========================================
 
 Found     29 irreducible k-points:
 
 Following reciprocal coordinates:
            Coordinates               Weight
  0.000000  0.000000  0.000000      1.000000
  0.125000  0.000000  0.000000      8.000000
  0.250000  0.000000  0.000000      8.000000
  0.375000  0.000000  0.000000      8.000000
  0.500000  0.000000  0.000000      4.000000
  0.125000  0.125000  0.000000      6.000000
  0.250000  0.125000  0.000000     24.000000
  0.375000  0.125000  0.000000     24.000000
  0.500000  0.125000  0.000000     24.000000
 -0.375000  0.125000  0.000000     24.000000
 -0.250000  0.125000  0.000000     24.000000
 -0.125000  0.125000  0.000000     12.000000
  0.250000  0.250000  0.000000      6.000000
  0.375000  0.250000  0.000000     24.000000
  0.500000  0.250000  0.000000     24.000000
 -0.375000  0.250000  0.000000     24.000000
 -0.250000  0.250000  0.000000     12.000000
  0.375000  0.375000  0.000000      6.000000
  0.500000  0.375000  0.000000     24.000000
 -0.375000  0.375000  0.000000     12.000000
  0.500000  0.500000  0.000000      3.000000
  0.375000  0.250000  0.125000     24.000000
  0.500000  0.250000  0.125000     48.000000
 -0.375000  0.250000  0.125000     24.000000
  0.500000  0.375000  0.125000     24.000000
 -0.375000  0.375000  0.125000     48.000000
 -0.250000  0.375000  0.125000     24.000000
 -0.375000  0.500000  0.125000     12.000000
 -0.250000  0.500000  0.250000      6.000000
 
 Following cartesian coordinates:
            Coordinates               Weight
  0.000000  0.000000  0.000000      1.000000
  0.125000  0.125000 -0.125000      8.000000
  0.250000  0.250000 -0.250000      8.000000
  0.375000  0.375000 -0.375000      8.000000
  0.500000  0.500000 -0.500000      4.000000
  0.000000  0.250000  0.000000      6.000000
  0.125000  0.375000 -0.125000     24.000000
  0.250000  0.500000 -0.250000     24.000000
  0.375000  0.625000 -0.375000     24.000000
 -0.500000 -0.250000  0.500000     24.000000
 -0.375000 -0.125000  0.375000     24.000000
 -0.250000  0.000000  0.250000     12.000000
  0.000000  0.500000  0.000000      6.000000
  0.125000  0.625000 -0.125000     24.000000
  0.250000  0.750000 -0.250000     24.000000
 -0.625000 -0.125000  0.625000     24.000000
 -0.500000  0.000000  0.500000     12.000000
  0.000000  0.750000  0.000000      6.000000
  0.125000  0.875000 -0.125000     24.000000
 -0.750000  0.000000  0.750000     12.000000
  0.000000  1.000000  0.000000      3.000000
  0.250000  0.500000 -0.000000     24.000000
  0.375000  0.625000 -0.125000     48.000000
 -0.500000 -0.250000  0.750000     24.000000
  0.250000  0.750000  0.000000     24.000000
 -0.625000 -0.125000  0.875000     48.000000
 -0.500000  0.000000  0.750000     24.000000
 -0.750000 -0.000000  1.000000     12.000000
 -0.500000  0.000000  1.000000      6.000000
 
 
 Subroutine IBZKPT_HF returns following result:
 ==============================================
 
 Found    512 k-points in 1st BZ
 the following    512 k-points will be used (e.g. in the exchange kernel)
 Following reciprocal coordinates:   # in IRBZ
  0.000000  0.000000  0.000000    0.00195312   1 t-inv F
  0.125000  0.000000  0.000000    0.00195312   2 t-inv F
  0.250000  0.000000  0.000000    0.00195312   3 t-inv F
  0.375000  0.000000  0.000000    0.00195312   4 t-inv F
  0.500000  0.000000  0.000000    0.00195312   5 t-inv F
  0.125000  0.125000  0.000000    0.00195312   6 t-inv F
  0.250000  0.125000  0.000000    0.00195312   7 t-inv F
  0.375000  0.125000  0.000000    0.00195312   8 t-inv F
  0.500000  0.125000  0.000000    0.00195312   9 t-inv F
 -0.375000  0.125000  0.000000    0.00195312  10 t-inv F
 -0.250000  0.125000  0.000000    0.00195312  11 t-inv F
 -0.125000  0.125000  0.000000    0.00195312  12 t-inv F
  0.250000  0.250000  0.000000    0.00195312  13 t-inv F
  0.375000  0.250000  0.000000    0.00195312  14 t-inv F
  0.500000  0.250000  0.000000    0.00195312  15 t-inv F
 -0.375000  0.250000  0.000000    0.00195312  16 t-inv F
 -0.250000  0.250000  0.000000    0.00195312  17 t-inv F
  0.375000  0.375000  0.000000    0.00195312  18 t-inv F
  0.500000  0.375000  0.000000    0.00195312  19 t-inv F
 -0.375000  0.375000  0.000000    0.00195312  20 t-inv F
  0.500000  0.500000  0.000000    0.00195312  21 t-inv F
  0.375000  0.250000  0.125000    0.00195312  22 t-inv F
  0.500000  0.250000  0.125000    0.00195312  23 t-inv F
 -0.375000  0.250000  0.125000    0.00195312  24 t-inv F
  0.500000  0.375000  0.125000    0.00195312  25 t-inv F
 -0.375000  0.375000  0.125000    0.00195312  26 t-inv F
 -0.250000  0.375000  0.125000    0.00195312  27 t-inv F
 -0.375000  0.500000  0.125000    0.00195312  28 t-inv F
 -0.250000  0.500000  0.250000    0.00195312  29 t-inv F
  0.000000  0.125000  0.000000    0.00195312   2 t-inv F
  0.000000  0.000000  0.125000    0.00195312   2 t-inv F
 -0.125000 -0.125000 -0.125000    0.00195312   2 t-inv F
 -0.125000  0.000000  0.000000    0.00195312   2 t-inv F
  0.000000 -0.125000  0.000000    0.00195312   2 t-inv F
  0.000000  0.000000 -0.125000    0.00195312   2 t-inv F
  0.125000  0.125000  0.125000    0.00195312   2 t-inv F
  0.000000  0.250000  0.000000    0.00195312   3 t-inv F
  0.000000  0.000000  0.250000    0.00195312   3 t-inv F
 -0.250000 -0.250000 -0.250000    0.00195312   3 t-inv F
 -0.250000  0.000000  0.000000    0.00195312   3 t-inv F
  0.000000 -0.250000  0.000000    0.00195312   3 t-inv F
  0.000000  0.000000 -0.250000    0.00195312   3 t-inv F
  0.250000  0.250000  0.250000    0.00195312   3 t-inv F
  0.000000  0.375000  0.000000    0.00195312   4 t-inv F
  0.000000  0.000000  0.375000    0.00195312   4 t-inv F
 -0.375000 -0.375000 -0.375000    0.00195312   4 t-inv F
 -0.375000  0.000000  0.000000    0.00195312   4 t-inv F
  0.000000 -0.375000  0.000000    0.00195312   4 t-inv F
  0.000000  0.000000 -0.375000    0.00195312   4 t-inv F
  0.375000  0.375000  0.375000    0.00195312   4 t-inv F
  0.000000  0.500000  0.000000    0.00195312   5 t-inv F
  0.000000  0.000000  0.500000    0.00195312   5 t-inv F
 -0.500000 -0.500000 -0.500000    0.00195312   5 t-inv F
  0.000000  0.125000  0.125000    0.00195312   6 t-inv F
  0.125000  0.000000  0.125000    0.00195312   6 t-inv F
 -0.125000 -0.125000  0.000000    0.00195312   6 t-inv F
 -0.125000  0.000000 -0.125000    0.00195312   6 t-inv F
  0.000000 -0.125000 -0.125000    0.00195312   6 t-inv F
  0.000000  0.250000  0.125000    0.00195312   7 t-inv F
  0.125000  0.000000  0.250000    0.00195312   7 t-inv F
 -0.125000 -0.125000  0.125000    0.00195312   7 t-inv F
 -0.250000 -0.125000 -0.250000    0.00195312   7 t-inv F
  0.125000  0.250000  0.000000    0.00195312   7 t-inv F
  0.125000 -0.125000 -0.125000    0.00195312   7 t-inv F
 -0.250000 -0.250000 -0.125000    0.00195312   7 t-inv F
  0.000000  0.125000  0.250000    0.00195312   7 t-inv F
 -0.125000  0.125000 -0.125000    0.00195312   7 t-inv F
 -0.125000 -0.250000 -0.250000    0.00195312   7 t-inv F
  0.250000  0.000000  0.125000    0.00195312   7 t-inv F
 -0.250000 -0.125000  0.000000    0.00195312   7 t-inv F
  0.000000 -0.250000 -0.125000    0.00195312   7 t-inv F
 -0.125000  0.000000 -0.250000    0.00195312   7 t-inv F
  0.125000  0.125000 -0.125000    0.00195312   7 t-inv F
  0.250000  0.125000  0.250000    0.00195312   7 t-inv F
 -0.125000 -0.250000  0.000000    0.00195312   7 t-inv F
 -0.125000  0.125000  0.125000    0.00195312   7 t-inv F
  0.250000  0.250000  0.125000    0.00195312   7 t-inv F
  0.000000 -0.125000 -0.250000    0.00195312   7 t-inv F
  0.125000 -0.125000  0.125000    0.00195312   7 t-inv F
  0.125000  0.250000  0.250000    0.00195312   7 t-inv F
 -0.250000  0.000000 -0.125000    0.00195312   7 t-inv F
  0.000000  0.375000  0.125000    0.00195312   8 t-inv F
  0.125000  0.000000  0.375000    0.00195312   8 t-inv F
 -0.125000 -0.125000  0.250000    0.00195312   8 t-inv F
 -0.375000 -0.250000 -0.375000    0.00195312   8 t-inv F
  0.125000  0.375000  0.000000    0.00195312   8 t-inv F
  0.250000 -0.125000 -0.125000    0.00195312   8 t-inv F
 -0.375000 -0.375000 -0.250000    0.00195312   8 t-inv F
  0.000000  0.125000  0.375000    0.00195312   8 t-inv F
 -0.125000  0.250000 -0.125000    0.00195312   8 t-inv F
 -0.250000 -0.375000 -0.375000    0.00195312   8 t-inv F
  0.375000  0.000000  0.125000    0.00195312   8 t-inv F
 -0.375000 -0.125000  0.000000    0.00195312   8 t-inv F
  0.000000 -0.375000 -0.125000    0.00195312   8 t-inv F
 -0.125000  0.000000 -0.375000    0.00195312   8 t-inv F
  0.125000  0.125000 -0.250000    0.00195312   8 t-inv F
  0.375000  0.250000  0.375000    0.00195312   8 t-inv F
 -0.125000 -0.375000  0.000000    0.00195312   8 t-inv F
 -0.250000  0.125000  0.125000    0.00195312   8 t-inv F
  0.375000  0.375000  0.250000    0.00195312   8 t-inv F
  0.000000 -0.125000 -0.375000    0.00195312   8 t-inv F
  0.125000 -0.250000  0.125000    0.00195312   8 t-inv F
  0.250000  0.375000  0.375000    0.00195312   8 t-inv F
 -0.375000  0.000000 -0.125000    0.00195312   8 t-inv F
  0.000000  0.500000  0.125000    0.00195312   9 t-inv F
  0.125000  0.000000  0.500000    0.00195312   9 t-inv F
 -0.125000 -0.125000  0.375000    0.00195312   9 t-inv F
 -0.500000 -0.375000 -0.500000    0.00195312   9 t-inv F
  0.125000  0.500000  0.000000    0.00195312   9 t-inv F
  0.375000 -0.125000 -0.125000    0.00195312   9 t-inv F
 -0.500000 -0.500000 -0.375000    0.00195312   9 t-inv F
  0.000000  0.125000  0.500000    0.00195312   9 t-inv F
 -0.125000  0.375000 -0.125000    0.00195312   9 t-inv F
 -0.375000 -0.500000 -0.500000    0.00195312   9 t-inv F
  0.500000  0.000000  0.125000    0.00195312   9 t-inv F
 -0.500000 -0.125000  0.000000    0.00195312   9 t-inv F
  0.000000 -0.500000 -0.125000    0.00195312   9 t-inv F
 -0.125000  0.000000 -0.500000    0.00195312   9 t-inv F
  0.125000  0.125000 -0.375000    0.00195312   9 t-inv F
  0.500000  0.375000  0.500000    0.00195312   9 t-inv F
 -0.125000 -0.500000  0.000000    0.00195312   9 t-inv F
 -0.375000  0.125000  0.125000    0.00195312   9 t-inv F
  0.500000  0.500000  0.375000    0.00195312   9 t-inv F
  0.000000 -0.125000 -0.500000    0.00195312   9 t-inv F
  0.125000 -0.375000  0.125000    0.00195312   9 t-inv F
  0.375000  0.500000  0.500000    0.00195312   9 t-inv F
 -0.500000  0.000000 -0.125000    0.00195312   9 t-inv F
  0.000000 -0.375000  0.125000    0.00195312  10 t-inv F
  0.125000  0.000000 -0.375000    0.00195312  10 t-inv F
 -0.125000 -0.125000 -0.500000    0.00195312  10 t-inv F
  0.375000  0.500000  0.375000    0.00195312  10 t-inv F
  0.125000 -0.375000  0.000000    0.00195312  10 t-inv F
 -0.500000 -0.125000 -0.125000    0.00195312  10 t-inv F
  0.375000  0.375000  0.500000    0.00195312  10 t-inv F
  0.000000  0.125000 -0.375000    0.00195312  10 t-inv F
 -0.125000 -0.500000 -0.125000    0.00195312  10 t-inv F
  0.500000  0.375000  0.375000    0.00195312  10 t-inv F
 -0.375000  0.000000  0.125000    0.00195312  10 t-inv F
  0.375000 -0.125000  0.000000    0.00195312  10 t-inv F
  0.000000  0.375000 -0.125000    0.00195312  10 t-inv F
 -0.125000  0.000000  0.375000    0.00195312  10 t-inv F
  0.125000  0.125000  0.500000    0.00195312  10 t-inv F
 -0.375000 -0.500000 -0.375000    0.00195312  10 t-inv F
 -0.125000  0.375000  0.000000    0.00195312  10 t-inv F
  0.500000  0.125000  0.125000    0.00195312  10 t-inv F
 -0.375000 -0.375000 -0.500000    0.00195312  10 t-inv F
  0.000000 -0.125000  0.375000    0.00195312  10 t-inv F
  0.125000  0.500000  0.125000    0.00195312  10 t-inv F
 -0.500000 -0.375000 -0.375000    0.00195312  10 t-inv F
  0.375000  0.000000 -0.125000    0.00195312  10 t-inv F
  0.000000 -0.250000  0.125000    0.00195312  11 t-inv F
  0.125000  0.000000 -0.250000    0.00195312  11 t-inv F
 -0.125000 -0.125000 -0.375000    0.00195312  11 t-inv F
  0.250000  0.375000  0.250000    0.00195312  11 t-inv F
  0.125000 -0.250000  0.000000    0.00195312  11 t-inv F
 -0.375000 -0.125000 -0.125000    0.00195312  11 t-inv F
  0.250000  0.250000  0.375000    0.00195312  11 t-inv F
  0.000000  0.125000 -0.250000    0.00195312  11 t-inv F
 -0.125000 -0.375000 -0.125000    0.00195312  11 t-inv F
  0.375000  0.250000  0.250000    0.00195312  11 t-inv F
 -0.250000  0.000000  0.125000    0.00195312  11 t-inv F
  0.250000 -0.125000  0.000000    0.00195312  11 t-inv F
  0.000000  0.250000 -0.125000    0.00195312  11 t-inv F
 -0.125000  0.000000  0.250000    0.00195312  11 t-inv F
  0.125000  0.125000  0.375000    0.00195312  11 t-inv F
 -0.250000 -0.375000 -0.250000    0.00195312  11 t-inv F
 -0.125000  0.250000  0.000000    0.00195312  11 t-inv F
  0.375000  0.125000  0.125000    0.00195312  11 t-inv F
 -0.250000 -0.250000 -0.375000    0.00195312  11 t-inv F
  0.000000 -0.125000  0.250000    0.00195312  11 t-inv F
  0.125000  0.375000  0.125000    0.00195312  11 t-inv F
 -0.375000 -0.250000 -0.250000    0.00195312  11 t-inv F
  0.250000  0.000000 -0.125000    0.00195312  11 t-inv F
  0.000000 -0.125000  0.125000    0.00195312  12 t-inv F
  0.125000  0.000000 -0.125000    0.00195312  12 t-inv F
 -0.125000 -0.125000 -0.250000    0.00195312  12 t-inv F
  0.125000  0.250000  0.125000    0.00195312  12 t-inv F
  0.125000 -0.125000  0.000000    0.00195312  12 t-inv F
 -0.250000 -0.125000 -0.125000    0.00195312  12 t-inv F
  0.125000  0.125000  0.250000    0.00195312  12 t-inv F
  0.000000  0.125000 -0.125000    0.00195312  12 t-inv F
 -0.125000 -0.250000 -0.125000    0.00195312  12 t-inv F
  0.250000  0.125000  0.125000    0.00195312  12 t-inv F
 -0.125000  0.000000  0.125000    0.00195312  12 t-inv F
  0.000000  0.250000  0.250000    0.00195312  13 t-inv F
  0.250000  0.000000  0.250000    0.00195312  13 t-inv F
 -0.250000 -0.250000  0.000000    0.00195312  13 t-inv F
 -0.250000  0.000000 -0.250000    0.00195312  13 t-inv F
  0.000000 -0.250000 -0.250000    0.00195312  13 t-inv F
  0.000000  0.375000  0.250000    0.00195312  14 t-inv F
  0.250000  0.000000  0.375000    0.00195312  14 t-inv F
 -0.250000 -0.250000  0.125000    0.00195312  14 t-inv F
 -0.375000 -0.125000 -0.375000    0.00195312  14 t-inv F
  0.250000  0.375000  0.000000    0.00195312  14 t-inv F
  0.125000 -0.250000 -0.250000    0.00195312  14 t-inv F
 -0.375000 -0.375000 -0.125000    0.00195312  14 t-inv F
  0.000000  0.250000  0.375000    0.00195312  14 t-inv F
 -0.250000  0.125000 -0.250000    0.00195312  14 t-inv F
 -0.125000 -0.375000 -0.375000    0.00195312  14 t-inv F
  0.375000  0.000000  0.250000    0.00195312  14 t-inv F
 -0.375000 -0.250000  0.000000    0.00195312  14 t-inv F
  0.000000 -0.375000 -0.250000    0.00195312  14 t-inv F
 -0.250000  0.000000 -0.375000    0.00195312  14 t-inv F
  0.250000  0.250000 -0.125000    0.00195312  14 t-inv F
  0.375000  0.125000  0.375000    0.00195312  14 t-inv F
 -0.250000 -0.375000  0.000000    0.00195312  14 t-inv F
 -0.125000  0.250000  0.250000    0.00195312  14 t-inv F
  0.375000  0.375000  0.125000    0.00195312  14 t-inv F
  0.000000 -0.250000 -0.375000    0.00195312  14 t-inv F
  0.250000 -0.125000  0.250000    0.00195312  14 t-inv F
  0.125000  0.375000  0.375000    0.00195312  14 t-inv F
 -0.375000  0.000000 -0.250000    0.00195312  14 t-inv F
  0.000000  0.500000  0.250000    0.00195312  15 t-inv F
  0.250000  0.000000  0.500000    0.00195312  15 t-inv F
 -0.250000 -0.250000  0.250000    0.00195312  15 t-inv F
 -0.500000 -0.250000 -0.500000    0.00195312  15 t-inv F
  0.250000  0.500000  0.000000    0.00195312  15 t-inv F
  0.250000 -0.250000 -0.250000    0.00195312  15 t-inv F
 -0.500000 -0.500000 -0.250000    0.00195312  15 t-inv F
  0.000000  0.250000  0.500000    0.00195312  15 t-inv F
 -0.250000  0.250000 -0.250000    0.00195312  15 t-inv F
 -0.250000 -0.500000 -0.500000    0.00195312  15 t-inv F
  0.500000  0.000000  0.250000    0.00195312  15 t-inv F
 -0.500000 -0.250000  0.000000    0.00195312  15 t-inv F
  0.000000 -0.500000 -0.250000    0.00195312  15 t-inv F
 -0.250000  0.000000 -0.500000    0.00195312  15 t-inv F
  0.250000  0.250000 -0.250000    0.00195312  15 t-inv F
  0.500000  0.250000  0.500000    0.00195312  15 t-inv F
 -0.250000 -0.500000  0.000000    0.00195312  15 t-inv F
 -0.250000  0.250000  0.250000    0.00195312  15 t-inv F
  0.500000  0.500000  0.250000    0.00195312  15 t-inv F
  0.000000 -0.250000 -0.500000    0.00195312  15 t-inv F
  0.250000 -0.250000  0.250000    0.00195312  15 t-inv F
  0.250000  0.500000  0.500000    0.00195312  15 t-inv F
 -0.500000  0.000000 -0.250000    0.00195312  15 t-inv F
  0.000000 -0.375000  0.250000    0.00195312  16 t-inv F
  0.250000  0.000000 -0.375000    0.00195312  16 t-inv F
 -0.250000 -0.250000 -0.625000    0.00195312  16 t-inv F
  0.375000  0.625000  0.375000    0.00195312  16 t-inv F
  0.250000 -0.375000  0.000000    0.00195312  16 t-inv F
 -0.625000 -0.250000 -0.250000    0.00195312  16 t-inv F
  0.375000  0.375000  0.625000    0.00195312  16 t-inv F
  0.000000  0.250000 -0.375000    0.00195312  16 t-inv F
 -0.250000 -0.625000 -0.250000    0.00195312  16 t-inv F
  0.625000  0.375000  0.375000    0.00195312  16 t-inv F
 -0.375000  0.000000  0.250000    0.00195312  16 t-inv F
  0.375000 -0.250000  0.000000    0.00195312  16 t-inv F
  0.000000  0.375000 -0.250000    0.00195312  16 t-inv F
 -0.250000  0.000000  0.375000    0.00195312  16 t-inv F
  0.250000  0.250000  0.625000    0.00195312  16 t-inv F
 -0.375000 -0.625000 -0.375000    0.00195312  16 t-inv F
 -0.250000  0.375000  0.000000    0.00195312  16 t-inv F
  0.625000  0.250000  0.250000    0.00195312  16 t-inv F
 -0.375000 -0.375000 -0.625000    0.00195312  16 t-inv F
  0.000000 -0.250000  0.375000    0.00195312  16 t-inv F
  0.250000  0.625000  0.250000    0.00195312  16 t-inv F
 -0.625000 -0.375000 -0.375000    0.00195312  16 t-inv F
  0.375000  0.000000 -0.250000    0.00195312  16 t-inv F
  0.000000 -0.250000  0.250000    0.00195312  17 t-inv F
  0.250000  0.000000 -0.250000    0.00195312  17 t-inv F
 -0.250000 -0.250000 -0.500000    0.00195312  17 t-inv F
  0.250000  0.500000  0.250000    0.00195312  17 t-inv F
  0.250000 -0.250000  0.000000    0.00195312  17 t-inv F
 -0.500000 -0.250000 -0.250000    0.00195312  17 t-inv F
  0.250000  0.250000  0.500000    0.00195312  17 t-inv F
  0.000000  0.250000 -0.250000    0.00195312  17 t-inv F
 -0.250000 -0.500000 -0.250000    0.00195312  17 t-inv F
  0.500000  0.250000  0.250000    0.00195312  17 t-inv F
 -0.250000  0.000000  0.250000    0.00195312  17 t-inv F
  0.000000  0.375000  0.375000    0.00195312  18 t-inv F
  0.375000  0.000000  0.375000    0.00195312  18 t-inv F
 -0.375000 -0.375000  0.000000    0.00195312  18 t-inv F
 -0.375000  0.000000 -0.375000    0.00195312  18 t-inv F
  0.000000 -0.375000 -0.375000    0.00195312  18 t-inv F
  0.000000  0.500000  0.375000    0.00195312  19 t-inv F
  0.375000  0.000000  0.500000    0.00195312  19 t-inv F
 -0.375000 -0.375000  0.125000    0.00195312  19 t-inv F
 -0.500000 -0.125000 -0.500000    0.00195312  19 t-inv F
  0.375000  0.500000  0.000000    0.00195312  19 t-inv F
  0.125000 -0.375000 -0.375000    0.00195312  19 t-inv F
 -0.500000 -0.500000 -0.125000    0.00195312  19 t-inv F
  0.000000  0.375000  0.500000    0.00195312  19 t-inv F
 -0.375000  0.125000 -0.375000    0.00195312  19 t-inv F
 -0.125000 -0.500000 -0.500000    0.00195312  19 t-inv F
  0.500000  0.000000  0.375000    0.00195312  19 t-inv F
 -0.500000 -0.375000  0.000000    0.00195312  19 t-inv F
  0.000000 -0.500000 -0.375000    0.00195312  19 t-inv F
 -0.375000  0.000000 -0.500000    0.00195312  19 t-inv F
  0.375000  0.375000 -0.125000    0.00195312  19 t-inv F
  0.500000  0.125000  0.500000    0.00195312  19 t-inv F
 -0.375000 -0.500000  0.000000    0.00195312  19 t-inv F
 -0.125000  0.375000  0.375000    0.00195312  19 t-inv F
  0.500000  0.500000  0.125000    0.00195312  19 t-inv F
  0.000000 -0.375000 -0.500000    0.00195312  19 t-inv F
  0.375000 -0.125000  0.375000    0.00195312  19 t-inv F
  0.125000  0.500000  0.500000    0.00195312  19 t-inv F
 -0.500000  0.000000 -0.375000    0.00195312  19 t-inv F
  0.000000 -0.375000  0.375000    0.00195312  20 t-inv F
  0.375000  0.000000 -0.375000    0.00195312  20 t-inv F
 -0.375000 -0.375000 -0.750000    0.00195312  20 t-inv F
  0.375000  0.750000  0.375000    0.00195312  20 t-inv F
  0.375000 -0.375000  0.000000    0.00195312  20 t-inv F
 -0.750000 -0.375000 -0.375000    0.00195312  20 t-inv F
  0.375000  0.375000  0.750000    0.00195312  20 t-inv F
  0.000000  0.375000 -0.375000    0.00195312  20 t-inv F
 -0.375000 -0.750000 -0.375000    0.00195312  20 t-inv F
  0.750000  0.375000  0.375000    0.00195312  20 t-inv F
 -0.375000  0.000000  0.375000    0.00195312  20 t-inv F
  0.000000  0.500000  0.500000    0.00195312  21 t-inv F
  0.500000  0.000000  0.500000    0.00195312  21 t-inv F
  0.125000  0.375000  0.250000    0.00195312  22 t-inv F
  0.250000  0.125000  0.375000    0.00195312  22 t-inv F
 -0.250000 -0.125000  0.125000    0.00195312  22 t-inv F
 -0.375000 -0.125000 -0.250000    0.00195312  22 t-inv F
 -0.125000  0.250000  0.125000    0.00195312  22 t-inv F
  0.125000  0.250000 -0.125000    0.00195312  22 t-inv F
  0.125000 -0.125000 -0.250000    0.00195312  22 t-inv F
 -0.250000 -0.125000 -0.375000    0.00195312  22 t-inv F
 -0.250000 -0.375000 -0.125000    0.00195312  22 t-inv F
  0.125000 -0.125000  0.250000    0.00195312  22 t-inv F
  0.125000 -0.250000 -0.125000    0.00195312  22 t-inv F
 -0.125000  0.125000  0.250000    0.00195312  22 t-inv F
 -0.250000  0.125000 -0.125000    0.00195312  22 t-inv F
 -0.375000 -0.250000 -0.125000    0.00195312  22 t-inv F
 -0.125000 -0.250000 -0.375000    0.00195312  22 t-inv F
  0.250000  0.125000 -0.125000    0.00195312  22 t-inv F
 -0.125000  0.125000 -0.250000    0.00195312  22 t-inv F
  0.250000 -0.125000  0.125000    0.00195312  22 t-inv F
 -0.125000 -0.250000  0.125000    0.00195312  22 t-inv F
 -0.125000 -0.375000 -0.250000    0.00195312  22 t-inv F
  0.375000  0.125000  0.250000    0.00195312  22 t-inv F
  0.250000  0.375000  0.125000    0.00195312  22 t-inv F
  0.125000  0.250000  0.375000    0.00195312  22 t-inv F
  0.125000  0.500000  0.250000    0.00195312  23 t-inv F
  0.250000  0.125000  0.500000    0.00195312  23 t-inv F
 -0.250000 -0.125000  0.250000    0.00195312  23 t-inv F
 -0.500000 -0.250000 -0.375000    0.00195312  23 t-inv F
 -0.125000  0.375000  0.125000    0.00195312  23 t-inv F
  0.125000  0.375000 -0.125000    0.00195312  23 t-inv F
  0.250000 -0.125000 -0.250000    0.00195312  23 t-inv F
 -0.375000 -0.250000 -0.500000    0.00195312  23 t-inv F
 -0.375000 -0.500000 -0.250000    0.00195312  23 t-inv F
  0.125000 -0.125000  0.375000    0.00195312  23 t-inv F
  0.250000 -0.250000 -0.125000    0.00195312  23 t-inv F
 -0.125000  0.125000  0.375000    0.00195312  23 t-inv F
 -0.250000  0.250000 -0.125000    0.00195312  23 t-inv F
 -0.500000 -0.375000 -0.250000    0.00195312  23 t-inv F
 -0.250000 -0.375000 -0.500000    0.00195312  23 t-inv F
  0.375000  0.125000 -0.125000    0.00195312  23 t-inv F
 -0.125000  0.250000 -0.250000    0.00195312  23 t-inv F
  0.375000 -0.125000  0.125000    0.00195312  23 t-inv F
 -0.125000 -0.250000  0.250000    0.00195312  23 t-inv F
 -0.250000 -0.500000 -0.375000    0.00195312  23 t-inv F
  0.500000  0.125000  0.250000    0.00195312  23 t-inv F
  0.250000  0.500000  0.125000    0.00195312  23 t-inv F
  0.125000  0.250000  0.500000    0.00195312  23 t-inv F
 -0.500000 -0.250000 -0.125000    0.00195312  23 t-inv F
 -0.125000 -0.500000 -0.250000    0.00195312  23 t-inv F
 -0.250000 -0.125000 -0.500000    0.00195312  23 t-inv F
  0.250000  0.125000 -0.250000    0.00195312  23 t-inv F
  0.500000  0.250000  0.375000    0.00195312  23 t-inv F
  0.125000 -0.375000 -0.125000    0.00195312  23 t-inv F
 -0.125000 -0.375000  0.125000    0.00195312  23 t-inv F
 -0.250000  0.125000  0.250000    0.00195312  23 t-inv F
  0.375000  0.250000  0.500000    0.00195312  23 t-inv F
  0.375000  0.500000  0.250000    0.00195312  23 t-inv F
 -0.125000  0.125000 -0.375000    0.00195312  23 t-inv F
 -0.250000  0.250000  0.125000    0.00195312  23 t-inv F
  0.125000 -0.125000 -0.375000    0.00195312  23 t-inv F
  0.250000 -0.250000  0.125000    0.00195312  23 t-inv F
  0.500000  0.375000  0.250000    0.00195312  23 t-inv F
  0.250000  0.375000  0.500000    0.00195312  23 t-inv F
 -0.375000 -0.125000  0.125000    0.00195312  23 t-inv F
  0.125000 -0.250000  0.250000    0.00195312  23 t-inv F
 -0.375000  0.125000 -0.125000    0.00195312  23 t-inv F
  0.125000  0.250000 -0.250000    0.00195312  23 t-inv F
  0.250000  0.500000  0.375000    0.00195312  23 t-inv F
 -0.500000 -0.125000 -0.250000    0.00195312  23 t-inv F
 -0.250000 -0.500000 -0.125000    0.00195312  23 t-inv F
 -0.125000 -0.250000 -0.500000    0.00195312  23 t-inv F
  0.125000 -0.375000  0.250000    0.00195312  24 t-inv F
  0.250000  0.125000 -0.375000    0.00195312  24 t-inv F
 -0.250000 -0.125000 -0.625000    0.00195312  24 t-inv F
  0.375000  0.625000  0.500000    0.00195312  24 t-inv F
 -0.125000 -0.500000  0.125000    0.00195312  24 t-inv F
  0.125000 -0.500000 -0.125000    0.00195312  24 t-inv F
 -0.625000 -0.125000 -0.250000    0.00195312  24 t-inv F
  0.500000  0.625000  0.375000    0.00195312  24 t-inv F
  0.500000  0.375000  0.625000    0.00195312  24 t-inv F
  0.125000 -0.125000 -0.500000    0.00195312  24 t-inv F
 -0.625000 -0.250000 -0.125000    0.00195312  24 t-inv F
 -0.125000  0.125000 -0.500000    0.00195312  24 t-inv F
 -0.250000 -0.625000 -0.125000    0.00195312  24 t-inv F
  0.375000  0.500000  0.625000    0.00195312  24 t-inv F
  0.625000  0.500000  0.375000    0.00195312  24 t-inv F
 -0.500000  0.125000 -0.125000    0.00195312  24 t-inv F
 -0.125000 -0.625000 -0.250000    0.00195312  24 t-inv F
 -0.500000 -0.125000  0.125000    0.00195312  24 t-inv F
 -0.125000 -0.250000 -0.625000    0.00195312  24 t-inv F
  0.625000  0.375000  0.500000    0.00195312  24 t-inv F
 -0.375000  0.125000  0.250000    0.00195312  24 t-inv F
  0.250000 -0.375000  0.125000    0.00195312  24 t-inv F
  0.125000  0.250000 -0.375000    0.00195312  24 t-inv F
  0.125000  0.500000  0.375000    0.00195312  25 t-inv F
  0.375000  0.125000  0.500000    0.00195312  25 t-inv F
 -0.375000 -0.250000  0.125000    0.00195312  25 t-inv F
 -0.500000 -0.125000 -0.375000    0.00195312  25 t-inv F
 -0.125000  0.375000  0.250000    0.00195312  25 t-inv F
  0.250000  0.375000 -0.125000    0.00195312  25 t-inv F
  0.125000 -0.250000 -0.375000    0.00195312  25 t-inv F
 -0.375000 -0.125000 -0.500000    0.00195312  25 t-inv F
 -0.375000 -0.500000 -0.125000    0.00195312  25 t-inv F
  0.250000 -0.125000  0.375000    0.00195312  25 t-inv F
  0.125000 -0.375000 -0.250000    0.00195312  25 t-inv F
 -0.125000  0.250000  0.375000    0.00195312  25 t-inv F
 -0.375000  0.125000 -0.250000    0.00195312  25 t-inv F
 -0.500000 -0.375000 -0.125000    0.00195312  25 t-inv F
 -0.125000 -0.375000 -0.500000    0.00195312  25 t-inv F
  0.375000  0.250000 -0.125000    0.00195312  25 t-inv F
 -0.250000  0.125000 -0.375000    0.00195312  25 t-inv F
  0.375000 -0.125000  0.250000    0.00195312  25 t-inv F
 -0.250000 -0.375000  0.125000    0.00195312  25 t-inv F
 -0.125000 -0.500000 -0.375000    0.00195312  25 t-inv F
  0.500000  0.125000  0.375000    0.00195312  25 t-inv F
  0.375000  0.500000  0.125000    0.00195312  25 t-inv F
  0.125000  0.375000  0.500000    0.00195312  25 t-inv F
  0.125000 -0.375000  0.375000    0.00195312  26 t-inv F
  0.375000  0.125000 -0.375000    0.00195312  26 t-inv F
 -0.375000 -0.250000 -0.750000    0.00195312  26 t-inv F
  0.375000  0.750000  0.500000    0.00195312  26 t-inv F
 -0.125000 -0.500000  0.250000    0.00195312  26 t-inv F
  0.250000 -0.500000 -0.125000    0.00195312  26 t-inv F
 -0.750000 -0.250000 -0.375000    0.00195312  26 t-inv F
  0.500000  0.750000  0.375000    0.00195312  26 t-inv F
  0.500000  0.375000  0.750000    0.00195312  26 t-inv F
  0.250000 -0.125000 -0.500000    0.00195312  26 t-inv F
 -0.750000 -0.375000 -0.250000    0.00195312  26 t-inv F
 -0.125000  0.250000 -0.500000    0.00195312  26 t-inv F
 -0.375000 -0.750000 -0.250000    0.00195312  26 t-inv F
  0.375000  0.500000  0.750000    0.00195312  26 t-inv F
  0.750000  0.500000  0.375000    0.00195312  26 t-inv F
 -0.500000  0.250000 -0.125000    0.00195312  26 t-inv F
 -0.250000 -0.750000 -0.375000    0.00195312  26 t-inv F
 -0.500000 -0.125000  0.250000    0.00195312  26 t-inv F
 -0.250000 -0.375000 -0.750000    0.00195312  26 t-inv F
  0.750000  0.375000  0.500000    0.00195312  26 t-inv F
 -0.375000  0.125000  0.375000    0.00195312  26 t-inv F
  0.375000 -0.375000  0.125000    0.00195312  26 t-inv F
  0.125000  0.375000 -0.375000    0.00195312  26 t-inv F
  0.375000 -0.375000 -0.125000    0.00195312  26 t-inv F
 -0.125000  0.375000 -0.375000    0.00195312  26 t-inv F
 -0.375000 -0.125000  0.375000    0.00195312  26 t-inv F
  0.375000  0.250000  0.750000    0.00195312  26 t-inv F
 -0.375000 -0.750000 -0.500000    0.00195312  26 t-inv F
  0.125000  0.500000 -0.250000    0.00195312  26 t-inv F
 -0.250000  0.500000  0.125000    0.00195312  26 t-inv F
  0.750000  0.250000  0.375000    0.00195312  26 t-inv F
 -0.500000 -0.750000 -0.375000    0.00195312  26 t-inv F
 -0.500000 -0.375000 -0.750000    0.00195312  26 t-inv F
 -0.250000  0.125000  0.500000    0.00195312  26 t-inv F
  0.750000  0.375000  0.250000    0.00195312  26 t-inv F
  0.125000 -0.250000  0.500000    0.00195312  26 t-inv F
  0.375000  0.750000  0.250000    0.00195312  26 t-inv F
 -0.375000 -0.500000 -0.750000    0.00195312  26 t-inv F
 -0.750000 -0.500000 -0.375000    0.00195312  26 t-inv F
  0.500000 -0.250000  0.125000    0.00195312  26 t-inv F
  0.250000  0.750000  0.375000    0.00195312  26 t-inv F
  0.500000  0.125000 -0.250000    0.00195312  26 t-inv F
  0.250000  0.375000  0.750000    0.00195312  26 t-inv F
 -0.750000 -0.375000 -0.500000    0.00195312  26 t-inv F
  0.375000 -0.125000 -0.375000    0.00195312  26 t-inv F
 -0.375000  0.375000 -0.125000    0.00195312  26 t-inv F
 -0.125000 -0.375000  0.375000    0.00195312  26 t-inv F
  0.125000 -0.250000  0.375000    0.00195312  27 t-inv F
  0.375000  0.125000 -0.250000    0.00195312  27 t-inv F
 -0.375000 -0.250000 -0.625000    0.00195312  27 t-inv F
  0.250000  0.625000  0.375000    0.00195312  27 t-inv F
 -0.125000 -0.375000  0.250000    0.00195312  27 t-inv F
  0.250000 -0.375000 -0.125000    0.00195312  27 t-inv F
 -0.625000 -0.250000 -0.375000    0.00195312  27 t-inv F
  0.375000  0.625000  0.250000    0.00195312  27 t-inv F
  0.375000  0.250000  0.625000    0.00195312  27 t-inv F
  0.250000 -0.125000 -0.375000    0.00195312  27 t-inv F
 -0.625000 -0.375000 -0.250000    0.00195312  27 t-inv F
 -0.125000  0.250000 -0.375000    0.00195312  27 t-inv F
 -0.375000 -0.625000 -0.250000    0.00195312  27 t-inv F
  0.250000  0.375000  0.625000    0.00195312  27 t-inv F
  0.625000  0.375000  0.250000    0.00195312  27 t-inv F
 -0.375000  0.250000 -0.125000    0.00195312  27 t-inv F
 -0.250000 -0.625000 -0.375000    0.00195312  27 t-inv F
 -0.375000 -0.125000  0.250000    0.00195312  27 t-inv F
 -0.250000 -0.375000 -0.625000    0.00195312  27 t-inv F
  0.625000  0.250000  0.375000    0.00195312  27 t-inv F
 -0.250000  0.125000  0.375000    0.00195312  27 t-inv F
  0.375000 -0.250000  0.125000    0.00195312  27 t-inv F
  0.125000  0.375000 -0.250000    0.00195312  27 t-inv F
  0.125000 -0.375000  0.500000    0.00195312  28 t-inv F
  0.500000  0.125000 -0.375000    0.00195312  28 t-inv F
 -0.500000 -0.375000 -0.875000    0.00195312  28 t-inv F
  0.375000  0.875000  0.500000    0.00195312  28 t-inv F
 -0.125000 -0.500000  0.375000    0.00195312  28 t-inv F
  0.375000 -0.500000 -0.125000    0.00195312  28 t-inv F
  0.500000  0.875000  0.375000    0.00195312  28 t-inv F
  0.500000  0.375000  0.875000    0.00195312  28 t-inv F
 -0.875000 -0.500000 -0.375000    0.00195312  28 t-inv F
 -0.125000  0.375000 -0.500000    0.00195312  28 t-inv F
 -0.375000 -0.875000 -0.500000    0.00195312  28 t-inv F
  0.250000 -0.250000  0.500000    0.00195312  29 t-inv F
  0.500000  0.250000 -0.250000    0.00195312  29 t-inv F
 -0.500000 -0.250000 -0.750000    0.00195312  29 t-inv F
  0.250000 -0.500000 -0.250000    0.00195312  29 t-inv F
 -0.250000  0.250000 -0.500000    0.00195312  29 t-inv F


--------------------------------------------------------------------------------------------------------




 Dimension of arrays:
   k-points           NKPTS =     29   k-points in BZ     NKDIM =     29   number of bands    NBANDS=      8
   number of dos      NEDOS =   2000   number of ions     NIONS =      2
   non local maximal  LDIM  =      4   non local SUM 2l+1 LMDIM =      8
   total plane-waves  NPLWV =  21952
   max r-space proj   IRMAX =      1   max aug-charges    IRDMAX=  18535
   dimension x,y,z NGX =    28 NGY =   28 NGZ =   28
   dimension x,y,z NGXF=    56 NGYF=   56 NGZF=   56
   support grid    NGXF=    56 NGYF=   56 NGZF=   56
   ions per type =               2
   NGX,Y,Z   is equivalent  to a cutoff of  12.12, 12.12, 12.12 a.u.
   NGXF,Y,Z  is equivalent  to a cutoff of  24.25, 24.25, 24.25 a.u.

 SYSTEM =  Si                                      
 POSCAR =  system Si                               

 Startparameter for this run:
   NWRITE =      2    write-flag & timer
   PREC   = accura    normal or accurate (medium, high low for compatibility)
   ISTART =      1    job   : 0-new  1-cont  2-samecut
   ICHARG =      0    charge: 1-file 2-atom 10-const
   ISPIN  =      1    spin polarized calculation?
   LNONCOLLINEAR =      F non collinear calculations
   LSORBIT =      F    spin-orbit coupling
   INIWAV =      1    electr: 0-lowe 1-rand  2-diag
   LASPH  =      F    aspherical Exc in radial PAW
   METAGGA=      F    non-selfconsistent MetaGGA calc.

 Electronic Relaxation 1
   ENCUT  =  500.0 eV  36.75 Ry    6.06 a.u.   7.00  7.00  7.00*2*pi/ulx,y,z
   ENINI  =  500.0     initial cutoff
   ENAUG  =  322.1 eV  augmentation charge cutoff
   NELM   =     60;   NELMIN=  2; NELMDL=  0     # of ELM steps 
   EDIFF  = 0.1E-07   stopping-criterion for ELM
   LREAL  =      F    real-space projection
   NLSPLINE    = F    spline interpolate recip. space projectors
   LCOMPAT=      F    compatible to vasp.4.4
   GGA_COMPAT  = T    GGA compatible to vasp.4.4-vasp.4.6
   LMAXPAW     = -100 max onsite density
   LMAXMIX     =    2 max onsite mixed and CHGCAR
   VOSKOWN=      0    Vosko Wilk Nusair interpolation
   ROPT   =    0.00000
 Ionic relaxation
   EDIFFG = 0.1E-06   stopping-criterion for IOM
   NSW    =      0    number of steps for IOM
   NBLOCK =      1;   KBLOCK =      1    inner block; outer block 
   IBRION =     -1    ionic relax: 0-MD 1-quasi-New 2-CG
   NFREE  =      0    steps in history (QN), initial steepest desc. (CG)
   ISIF   =      2    stress and relaxation
   IWAVPR =     10    prediction:  0-non 1-charg 2-wave 3-comb
   ISYM   =      2    0-nonsym 1-usesym 2-fastsym
   LCORR  =      T    Harris-Foulkes like correction to forces

   POTIM  = 0.5000    time-step for ionic-motion
   TEIN   =    0.0    initial temperature
   TEBEG  =    0.0;   TEEND  =   0.0 temperature during run
   SMASS  =  -3.00    Nose mass-parameter (am)
   estimated Nose-frequenzy (Omega)   =  0.10E-29 period in steps =****** mass=  -0.337E-27a.u.
   SCALEE = 1.0000    scale energy and forces
   NPACO  =    256;   APACO  = 16.0  distance and # of slots for P.C.
   PSTRESS=    0.0 pullay stress

  Mass of Ions in am
   POMASS =  28.09
  Ionic Valenz
   ZVAL   =   4.00
  Atomic Wigner-Seitz radii
   RWIGS  =  -1.00
  virtual crystal weights 
   VCA    =   1.00
   NELECT =       8.0000    total number of electrons
   NUPDOWN=      -1.0000    fix difference up-down

 DOS related values:
   EMIN   =  10.00;   EMAX   =-10.00  energy-range for DOS
   EFERMI =   0.00
   ISMEAR =     0;   SIGMA  =   0.20  broadening in eV -4-tet -1-fermi 0-gaus

 Electronic relaxation 2 (details)
   IALGO  =     38    algorithm
   LDIAG  =      T    sub-space diagonalisation (order eigenvalues)
   LSUBROT=      F    optimize rotation matrix (better conditioning)
   TURBO    =      0    0=normal 1=particle mesh
   IRESTART =      0    0=no restart 2=restart with 2 vectors
   NREBOOT  =      0    no. of reboots
   NMIN     =      0    reboot dimension
   EREF     =   0.00    reference energy to select bands
   IMIX   =      4    mixing-type and parameters
     AMIX     =   0.40;   BMIX     =  1.00
     AMIX_MAG =   1.60;   BMIX_MAG =  1.00
     AMIN     =   0.10
     WC   =   100.;   INIMIX=   1;  MIXPRE=   1;  MAXMIX= -45

 Intra band minimization:
   WEIMIN = 0.0000     energy-eigenvalue tresh-hold
   EBREAK =  0.31E-09  absolut break condition
   DEPER  =   0.30     relativ break condition  

   TIME   =   0.40     timestep for ELM

  volume/ion in A,a.u.               =      20.01       135.05
  Fermi-wavevector in a.u.,A,eV,Ry     =   0.957176  1.808800 12.465458  0.916185
  Thomas-Fermi vector in A             =   2.086170
 
 Write flags
   LWAVE        =      T    write WAVECAR
   LDOWNSAMPLE  =      F    k-point downsampling of WAVECAR
   LCHARG       =      F    write CHGCAR
   LVTOT        =      F    write LOCPOT, total local potential
   LVHAR        =      F    write LOCPOT, Hartree potential only
   LELF         =      F    write electronic localiz. function (ELF)
   LORBIT       =      0    0 simple, 1 ext, 2 COOP (PROOUT), +10 PAW based schemes


 Dipole corrections
   LMONO  =      F    monopole corrections only (constant potential shift)
   LDIPOL =      F    correct potential (dipole corrections)
   IDIPOL =      0    1-x, 2-y, 3-z, 4-all directions 
   EPSILON=  1.0000000 bulk dielectric constant

 Exchange correlation treatment:
   GGA     =    --    GGA type
   LEXCH   =     8    internal setting for exchange type
   VOSKOWN=      0    Vosko Wilk Nusair interpolation
   LHFCALC =     F    Hartree Fock is set to
   LHFONE  =     F    Hartree Fock one center treatment
   AEXX    =    0.0000 exact exchange contribution

 Linear response parameters
   LEPSILON=     F    determine dielectric tensor
   LRPA    =     F    only Hartree local field effects (RPA)
   LNABLA  =     F    use nabla operator in PAW spheres
   LVEL    =     F    velocity operator in full k-point grid
   LINTERFAST=   F  fast interpolation
   KINTER  =     0    interpolate to denser k-point grid
   CSHIFT  =0.1000    complex shift for real part using Kramers Kronig
   OMEGAMAX=  -1.0    maximum frequency
   DEG_THRESHOLD= 0.2000000E-02 threshold for treating states as degnerate
   RTIME   =   -0.100 relaxation time in fs
  (WPLASMAI=    0.000 imaginary part of plasma frequency in eV, 0.658/RTIME)
   DFIELD  = 0.0000000 0.0000000 0.0000000 field for delta impulse in time
 
 Orbital magnetization related:
   ORBITALMAG=     F  switch on orbital magnetization
   LCHIMAG   =     F  perturbation theory with respect to B field
   DQ        =  0.001000  dq finite difference perturbation B field
   LLRAUG    =     F  two centre corrections for induced B field



--------------------------------------------------------------------------------------------------------


 Static calculation
 charge density and potential will be updated during run
 non-spin polarized calculation
 Variant of blocked Davidson
 Davidson routine will perform the subspace rotation
 perform sub-space diagonalisation
    after iterative eigenvector-optimisation
 modified Broyden-mixing scheme, WC =      100.0
 initial mixing is a Kerker type mixing with AMIX =  0.4000 and BMIX =      1.0000
 Hartree-type preconditioning will be used
 using additional bands            4
 reciprocal scheme for non local part
 use partial core corrections
 calculate Harris-corrections to forces 
   (improved forces if not selfconsistent)
 use gradient corrections 
 use of overlap-Matrix (Vanderbilt PP)
 Gauss-broadening in eV      SIGMA  =   0.20


--------------------------------------------------------------------------------------------------------


  energy-cutoff  :      500.00
  volume of cell :       40.03
      direct lattice vectors                 reciprocal lattice vectors
     2.715000000  2.715000000  0.000000000     0.184162063  0.184162063 -0.184162063
     0.000000000  2.715000000  2.715000000    -0.184162063  0.184162063  0.184162063
     2.715000000  0.000000000  2.715000000     0.184162063 -0.184162063  0.184162063

  length of vectors
     3.839589822  3.839589822  3.839589822     0.318978049  0.318978049  0.318978049


 
 old parameters found on file WAVECAR:
  energy-cutoff  :      500.00
  volume of cell :       40.03
      direct lattice vectors                 reciprocal lattice vectors
     2.715000000  2.715000000  0.000000000     0.184162063  0.184162063 -0.184162063
     0.000000000  2.715000000  2.715000000    -0.184162063  0.184162063  0.184162063
     2.715000000  0.000000000  2.715000000     0.184162063 -0.184162063  0.184162063

  length of vectors

 
 k-points in units of 2pi/SCALE and weight: Automatic 8x8x8                         
   0.00000000  0.00000000  0.00000000       0.002
   0.12500000  0.12500000 -0.12500000       0.016
   0.25000000  0.25000000 -0.25000000       0.016
   0.37500000  0.37500000 -0.37500000       0.016
   0.50000000  0.50000000 -0.50000000       0.008
   0.00000000  0.25000000  0.00000000       0.012
   0.12500000  0.37500000 -0.12500000       0.047
   0.25000000  0.50000000 -0.25000000       0.047
   0.37500000  0.62500000 -0.37500000       0.047
  -0.50000000 -0.25000000  0.50000000       0.047
  -0.37500000 -0.12500000  0.37500000       0.047
  -0.25000000  0.00000000  0.25000000       0.023
   0.00000000  0.50000000  0.00000000       0.012
   0.12500000  0.62500000 -0.12500000       0.047
   0.25000000  0.75000000 -0.25000000       0.047
  -0.62500000 -0.12500000  0.62500000       0.047
  -0.50000000  0.00000000  0.50000000       0.023
   0.00000000  0.75000000  0.00000000       0.012
   0.12500000  0.87500000 -0.12500000       0.047
  -0.75000000  0.00000000  0.75000000       0.023
   0.00000000  1.00000000  0.00000000       0.006
   0.25000000  0.50000000 -0.00000000       0.047
   0.37500000  0.62500000 -0.12500000       0.094
  -0.50000000 -0.25000000  0.75000000       0.047
   0.25000000  0.75000000  0.00000000       0.047
  -0.62500000 -0.12500000  0.87500000       0.094
  -0.50000000  0.00000000  0.75000000       0.047
  -0.75000000 -0.00000000  1.00000000       0.023
  -0.50000000  0.00000000  1.00000000       0.012
 
 k-points in reciprocal lattice and weights: Automatic 8x8x8                         
   0.00000000  0.00000000  0.00000000       0.002
   0.12500000  0.00000000  0.00000000       0.016
   0.25000000  0.00000000  0.00000000       0.016
   0.37500000  0.00000000  0.00000000       0.016
   0.50000000  0.00000000  0.00000000       0.008
   0.12500000  0.12500000  0.00000000       0.012
   0.25000000  0.12500000  0.00000000       0.047
   0.37500000  0.12500000  0.00000000       0.047
   0.50000000  0.12500000  0.00000000       0.047
  -0.37500000  0.12500000  0.00000000       0.047
  -0.25000000  0.12500000  0.00000000       0.047
  -0.12500000  0.12500000  0.00000000       0.023
   0.25000000  0.25000000  0.00000000       0.012
   0.37500000  0.25000000  0.00000000       0.047
   0.50000000  0.25000000  0.00000000       0.047
  -0.37500000  0.25000000  0.00000000       0.047
  -0.25000000  0.25000000  0.00000000       0.023
   0.37500000  0.37500000  0.00000000       0.012
   0.50000000  0.37500000  0.00000000       0.047
  -0.37500000  0.37500000  0.00000000       0.023
   0.50000000  0.50000000  0.00000000       0.006
   0.37500000  0.25000000  0.12500000       0.047
   0.50000000  0.25000000  0.12500000       0.094
  -0.37500000  0.25000000  0.12500000       0.047
   0.50000000  0.37500000  0.12500000       0.047
  -0.37500000  0.37500000  0.12500000       0.094
  -0.25000000  0.37500000  0.12500000       0.047
  -0.37500000  0.50000000  0.12500000       0.023
  -0.25000000  0.50000000  0.25000000       0.012
 
 position of ions in fractional coordinates (direct lattice) 
   0.00000000  0.00000000  0.00000000
   0.25000000  0.25000000  0.25000000
 
 position of ions in cartesian coordinates  (Angst):
   0.00000000  0.00000000  0.00000000
   1.35750000  1.35750000  1.35750000
 


--------------------------------------------------------------------------------------------------------


 k-point  1 :   0.0000 0.0000 0.0000  plane waves:     965
 k-point  2 :   0.1250 0.0000 0.0000  plane waves:     989
 k-point  3 :   0.2500 0.0000 0.0000  plane waves:    1001
 k-point  4 :   0.3750 0.0000 0.0000  plane waves:    1017
 k-point  5 :   0.5000 0.0000 0.0000  plane waves:    1008
 k-point  6 :   0.1250 0.1250 0.0000  plane waves:     994
 k-point  7 :   0.2500 0.1250 0.0000  plane waves:    1002
 k-point  8 :   0.3750 0.1250 0.0000  plane waves:    1004
 k-point  9 :   0.5000 0.1250 0.0000  plane waves:    1015
 k-point 10 :  -0.3750 0.1250 0.0000  plane waves:    1016
 k-point 11 :  -0.2500 0.1250 0.0000  plane waves:    1008
 k-point 12 :  -0.1250 0.1250 0.0000  plane waves:     997
 k-point 13 :   0.2500 0.2500 0.0000  plane waves:     998
 k-point 14 :   0.3750 0.2500 0.0000  plane waves:    1021
 k-point 15 :   0.5000 0.2500 0.0000  plane waves:    1014
 k-point 16 :  -0.3750 0.2500 0.0000  plane waves:    1009
 k-point 17 :  -0.2500 0.2500 0.0000  plane waves:    1019
 k-point 18 :   0.3750 0.3750 0.0000  plane waves:    1026
 k-point 19 :   0.5000 0.3750 0.0000  plane waves:    1011
 k-point 20 :  -0.3750 0.3750 0.0000  plane waves:    1011
 k-point 21 :   0.5000 0.5000 0.0000  plane waves:    1034
 k-point 22 :   0.3750 0.2500 0.1250  plane waves:    1019
 k-point 23 :   0.5000 0.2500 0.1250  plane waves:    1018
 k-point 24 :  -0.3750 0.2500 0.1250  plane waves:    1034
 k-point 25 :   0.5000 0.3750 0.1250  plane waves:    1026
 k-point 26 :  -0.3750 0.3750 0.1250  plane waves:    1019
 k-point 27 :  -0.2500 0.3750 0.1250  plane waves:    1017
 k-point 28 :  -0.3750 0.5000 0.1250  plane waves:    1012
 k-point 29 :  -0.2500 0.5000 0.2500  plane waves:    1036

 maximum and minimum number of plane-waves per node :      1036      965

 maximum number of plane-waves:      1036
 maximum index in each direction: 
   IXMAX=    7   IYMAX=    6   IZMAX=    7
   IXMIN=   -7   IYMIN=   -7   IZMIN=   -7


 serial   3D FFT for wavefunctions
 parallel 3D FFT for charge:
    minimum data exchange during FFTs selected (reduces bandwidth)


 total amount of memory used by VASP MPI-rank0    37604. kBytes
=======================================================================

   base      :      30000. kBytes
   nonl-proj :       1955. kBytes
   fftplans  :       1619. kBytes
   grid      :       3048. kBytes
   one-center:          6. kBytes
   wavefun   :        976. kBytes
 
     INWAV:  cpu time    0.0173: real time    0.0173
 Broyden mixing: mesh for mixing (old mesh)
   NGX = 13   NGY = 13   NGZ = 13
  (NGX  = 56   NGY  = 56   NGZ  = 56)
  gives a total of   2197 points

 charge density for first step will be calculated from the start-wavefunctions


--------------------------------------------------------------------------------------------------------


 Maximum index for augmentation-charges         4527 (set IRDMAX)


--------------------------------------------------------------------------------------------------------


 initial charge from wavefunction
 First call to EWALD:  gamma=   0.518
 Maximum number of real-space cells 3x 3x 3
 Maximum number of reciprocal cells 3x 3x 3

    FEWALD:  cpu time    0.0013: real time    0.0013


--------------------------------------- Iteration      1(   1)  ---------------------------------------


    POTLOK:  cpu time    0.0212: real time    0.0222
    SETDIJ:  cpu time    0.0015: real time    0.0015
     EDDAV:  cpu time    0.1082: real time    0.1083
       DOS:  cpu time    0.0014: real time    0.0014
    CHARGE:  cpu time    0.0145: real time    0.0145
    MIXING:  cpu time    0.0007: real time    0.0007
    --------------------------------------------
      LOOP:  cpu time    0.1475: real time    0.1486

 eigenvalue-minimisations  :   344
 total energy-change (2. order) :-0.1084075E+02  (-0.3346589E-11)
 number of electron       8.0000001 magnetization 
 augmentation part       -0.4586056 magnetization 

 Broyden mixing:
  rms(total) = 0.33221E-06    rms(broyden)= 0.33221E-06
  rms(prec ) = 0.12037E-05
  weight for this iteration     100.00

 Free energy of the ion-electron system (eV)
  ---------------------------------------------------
  alpha Z        PSCENC =         3.36414203
  Ewald energy   TEWEN  =      -228.56352493
  -Hartree energ DENC   =       -14.92876797
  -exchange      EXHF   =         0.00000000
  -V(xc)+E(xc)   XCENC  =       -17.96133960
  PAW double counting   =        74.30129639      -39.33904614
  entropy T*S    EENTRO =        -0.00018970
  eigenvalues    EBANDS =         6.15416577
  atomic energy  EATOM  =       206.13251344
  Solvation  Ediel_sol  =         0.00000000
  ---------------------------------------------------
  free energy    TOTEN  =       -10.84075071 eV

  energy without entropy =      -10.84056101  energy(sigma->0) =      -10.84065586


--------------------------------------------------------------------------------------------------------




--------------------------------------- Iteration      1(   2)  ---------------------------------------


    POTLOK:  cpu time    0.0194: real time    0.0197
    SETDIJ:  cpu time    0.0014: real time    0.0014
     EDDAV:  cpu time    0.1037: real time    0.1037
       DOS:  cpu time    0.0013: real time    0.0013
    --------------------------------------------
      LOOP:  cpu time    0.1258: real time    0.1262

 eigenvalue-minimisations  :   336
 total energy-change (2. order) : 0.3587957E-09  (-0.2713101E-12)
 number of electron       8.0000001 magnetization 
 augmentation part       -0.4586056 magnetization 

 Free energy of the ion-electron system (eV)
  ---------------------------------------------------
  alpha Z        PSCENC =         3.36414203
  Ewald energy   TEWEN  =      -228.56352493
  -Hartree energ DENC   =       -14.92876506
  -exchange      EXHF   =         0.00000000
  -V(xc)+E(xc)   XCENC  =       -17.96133984
  PAW double counting   =        74.30129069      -39.33904024
  entropy T*S    EENTRO =        -0.00018970
  eigenvalues    EBANDS =         6.15416290
  atomic energy  EATOM  =       206.13251344
  Solvation  Ediel_sol  =         0.00000000
  ---------------------------------------------------
  free energy    TOTEN  =       -10.84075071 eV

  energy without entropy =      -10.84056101  energy(sigma->0) =      -10.84065586


--------------------------------------------------------------------------------------------------------




 average (electrostatic) potential at core
  the test charge radii are     0.9892
  (the norm of the test charge is              1.0000)
       1 -83.2426       2 -83.2426
 
 
 
 E-fermi :   6.1161     XC(G=0):  -9.4097     alpha+bet :-11.9845


 k-point     1 :       0.0000    0.0000    0.0000
  band No.  band energies     occupation 
      1      -6.1291      2.00000
      2       5.8312      1.95607
      3       5.8312      1.95607
      4       5.8312      1.95607
      5       8.3965      0.00000
      6       8.3965      0.00000
      7       8.3965      0.00000
      8       9.2096      0.00000

 k-point     2 :       0.1250    0.0000    0.0000
  band No.  band energies     occupation 
      1      -5.9249      2.00000
      2       4.2342      2.00000
      3       5.5426      1.99995
      4       5.5426      1.99995
      5       8.3372      0.00000
      6       8.8207      0.00000
      7       8.8207      0.00000
      8      10.5519      0.00000

 k-point     3 :       0.2500    0.0000    0.0000
  band No.  band energies     occupation 
      1      -5.3291      2.00000
      2       1.9064      2.00000
      3       5.0724      2.00000
      4       5.0724      2.00000
      5       7.8643      0.00000
      6       9.3383      0.00000
      7       9.3383      0.00000
      8      12.7583      0.00000

 k-point     4 :       0.3750    0.0000    0.0000
  band No.  band energies     occupation 
      1      -4.4350      2.00000
      2      -0.1138      2.00000
      3       4.7457      2.00000
      4       4.7457      2.00000
      5       7.5008      0.00000
      6       9.2825      0.00000
      7       9.2825      0.00000
      8      13.7166      0.00000

 k-point     5 :       0.5000    0.0000    0.0000
  band No.  band energies     occupation 
      1      -3.7968      2.00000
      2      -1.1365      2.00000
      3       4.6339      2.00000
      4       4.6339      2.00000
      5       7.3729      0.00000
      6       9.1710      0.00000
      7       9.1710      0.00000
      8      13.5611      0.00000

 k-point     6 :       0.1250    0.1250    0.0000
  band No.  band energies     occupation 
      1      -5.8561      2.00000
      2       4.4997      2.00000
      3       5.0251      2.00000
      4       5.0251      2.00000
      5       7.8445      0.00000
      6       9.5365      0.00000
      7       9.5365      0.00000
      8      10.2384      0.00000

 k-point     7 :       0.2500    0.1250    0.0000
  band No.  band energies     occupation 
      1      -5.3872      2.00000
      2       2.6096      2.00000
      3       4.5137      2.00000
      4       4.5902      2.00000
      5       7.9805      0.00000
      6       9.5442      0.00000
      7      10.3006      0.00000
      8      10.5818      0.00000

 k-point     8 :       0.3750    0.1250    0.0000
  band No.  band energies     occupation 
      1      -4.5720      2.00000
      2       0.5488      2.00000
      3       3.9989      2.00000
      4       4.2459      2.00000
      5       8.0801      0.00000
      6       9.4757      0.00000
      7      10.2961      0.00000
      8      11.2992      0.00000

 k-point     9 :       0.5000    0.1250    0.0000
  band No.  band energies     occupation 
      1      -3.7102      2.00000
      2      -0.9150      2.00000
      3       3.5533      2.00000
      4       4.2705      2.00000
      5       8.0274      0.00000
      6       9.3474      0.00000
      7       9.9318      0.00000
      8      13.2034      0.00000

 k-point    10 :      -0.3750    0.1250    0.0000
  band No.  band energies     occupation 
      1      -3.9548      2.00000
      2      -0.5442      2.00000
      3       3.3715      2.00000
      4       4.5670      2.00000
      5       8.1947      0.00000
      6       9.4552      0.00000
      7       9.7000      0.00000
      8      13.7515      0.00000

 k-point    11 :      -0.2500    0.1250    0.0000
  band No.  band energies     occupation 
      1      -4.8784      2.00000
      2       1.2081      2.00000
      3       3.5221      2.00000
      4       5.0583      2.00000
      5       8.5542      0.00000
      6       9.5099      0.00000
      7       9.6881      0.00000
      8      12.1339      0.00000

 k-point    12 :      -0.1250    0.1250    0.0000
  band No.  band energies     occupation 
      1      -5.5886      2.00000
      2       3.1497      2.00000
      3       4.2038      2.00000
      4       5.5390      1.99996
      5       8.8785      0.00000
      6       8.9574      0.00000
      7       9.1916      0.00000
      8      11.3868      0.00000

 k-point    13 :       0.2500    0.2500    0.0000
  band No.  band energies     occupation 
      1      -5.0467      2.00000
      2       2.3173      2.00000
      3       3.9427      2.00000
      4       3.9427      2.00000
      5       6.9623      0.00000
      6       8.9647      0.00000
      7      11.5900      0.00000
      8      11.5900      0.00000

 k-point    14 :       0.3750    0.2500    0.0000
  band No.  band energies     occupation 
      1      -4.3365      2.00000
      2       0.8934      2.00000
      3       3.1622      2.00000
      4       3.6248      2.00000
      5       7.1826      0.00000
      6       8.7259      0.00000
      7      11.8320      0.00000
      8      12.1013      0.00000

 k-point    15 :       0.5000    0.2500    0.0000
  band No.  band energies     occupation 
      1      -3.4101      2.00000
      2      -0.5490      2.00000
      3       2.2987      2.00000
      4       3.6280      2.00000
      5       7.3515      0.00000
      6      10.2792      0.00000
      7      11.5807      0.00000
      8      11.7510      0.00000

 k-point    16 :      -0.3750    0.2500    0.0000
  band No.  band energies     occupation 
      1      -3.2057      2.00000
      2      -0.8075      2.00000
      3       1.8401      2.00000
      4       3.9464      2.00000
      5       7.6763      0.00000
      6      11.2972      0.00000
      7      11.3124      0.00000
      8      12.7938      0.00000

 k-point    17 :      -0.2500    0.2500    0.0000
  band No.  band energies     occupation 
      1      -4.0846      2.00000
      2       0.3537      2.00000
      3       2.0801      2.00000
      4       4.5048      2.00000
      5       8.2826      0.00000
      6      10.6232      0.00000
      7      10.9640      0.00000
      8      11.9841      0.00000

 k-point    18 :       0.3750    0.3750    0.0000
  band No.  band energies     occupation 
      1      -3.7338      2.00000
      2       0.0889      2.00000
      3       3.2265      2.00000
      4       3.2265      2.00000
      5       6.4466      0.01944
      6       7.3705      0.00000
      7      13.8746      0.00000
      8      13.8746      0.00000

 k-point    19 :       0.5000    0.3750    0.0000
  band No.  band energies     occupation 
      1      -2.8361      2.00000
      2      -0.9964      2.00000
      3       2.3972      2.00000
      4       3.1504      2.00000
      5       6.7257      0.00002
      6       7.7986      0.00000
      7      14.0993      0.00000
      8      14.1897      0.00000

 k-point    20 :      -0.3750    0.3750    0.0000
  band No.  band energies     occupation 
      1      -2.3971      2.00000
      2      -1.3932      2.00000
      3       1.5309      2.00000
      4       3.4080      2.00000
      5       7.0352      0.00000
      6       9.9599      0.00000
      7      13.3040      0.00000
      8      13.8459      0.00000

 k-point    21 :       0.5000    0.5000    0.0000
  band No.  band energies     occupation 
      1      -1.9833      2.00000
      2      -1.9833      2.00000
      3       2.9810      2.00000
      4       2.9810      2.00000
      5       6.5407      0.00268
      6       6.5407      0.00268
      7      15.9502      0.00000
      8      15.9502      0.00000

 k-point    22 :       0.3750    0.2500    0.1250
  band No.  band energies     occupation 
      1      -4.7992      2.00000
      2       1.5446      2.00000
      3       3.1197      2.00000
      4       4.4050      2.00000
      5       8.2799      0.00000
      6       9.7378      0.00000
      7      10.0241      0.00000
      8      11.3345      0.00000

 k-point    23 :       0.5000    0.2500    0.1250
  band No.  band energies     occupation 
      1      -3.9106      2.00000
      2      -0.0077      2.00000
      3       2.5120      2.00000
      4       3.9035      2.00000
      5       8.7097      0.00000
      6       9.3866      0.00000
      7      10.8519      0.00000
      8      11.7685      0.00000

 k-point    24 :      -0.3750    0.2500    0.1250
  band No.  band energies     occupation 
      1      -3.2579      2.00000
      2      -0.9531      2.00000
      3       2.3833      2.00000
      4       3.6738      2.00000
      5       8.9009      0.00000
      6       8.9628      0.00000
      7      11.7441      0.00000
      8      12.9491      0.00000

 k-point    25 :       0.5000    0.3750    0.1250
  band No.  band energies     occupation 
      1      -3.5351      2.00000
      2      -0.1301      2.00000
      3       2.4707      2.00000
      4       3.0736      2.00000
      5       7.7789      0.00000
      6       8.4775      0.00000
      7      11.5875      0.00000
      8      13.8236      0.00000

 k-point    26 :      -0.3750    0.3750    0.1250
  band No.  band energies     occupation 
      1      -2.6599      2.00000
      2      -1.0983      2.00000
      3       1.7724      2.00000
      4       2.8729      2.00000
      5       8.2200      0.00000
      6      10.1118      0.00000
      7      11.1109      0.00000
      8      13.2734      0.00000

 k-point    27 :      -0.2500    0.3750    0.1250
  band No.  band energies     occupation 
      1      -3.0107      2.00000
      2      -0.7351      2.00000
      3       1.6054      2.00000
      4       3.2489      2.00000
      5       8.7000      0.00000
      6      10.3762      0.00000
      7      11.0477      0.00000
      8      12.8621      0.00000

 k-point    28 :      -0.3750    0.5000    0.1250
  band No.  band energies     occupation 
      1      -1.9052      2.00000
      2      -1.9052      2.00000
      3       2.4163      2.00000
      4       2.4163      2.00000
      5       7.8019      0.00000
      6       7.8019      0.00000
      7      13.6804      0.00000
      8      13.6804      0.00000

 k-point    29 :      -0.2500    0.5000    0.2500
  band No.  band energies     occupation 
      1      -1.8193      2.00000
      2      -1.8193      2.00000
      3       1.9800      2.00000
      4       1.9800      2.00000
      5      10.0990      0.00000
      6      10.0990      0.00000
      7      10.8380      0.00000
      8      10.8380      0.00000


--------------------------------------------------------------------------------------------------------


 soft charge-density along one line, spin component           1
         0         1         2         3         4         5         6         7         8         9
 total charge-density along one line
 
 pseudopotential strength for first ion, spin component:           1
 18.413  -0.001   0.000   0.000   0.000  -0.000  -0.000  -0.000
 -0.001   0.006  -0.000  -0.000  -0.000   0.000   0.000   0.000
  0.000  -0.000   4.178  -0.000  -0.000  -0.005   0.000   0.000
  0.000  -0.000  -0.000   4.178  -0.000   0.000  -0.005   0.000
  0.000  -0.000  -0.000  -0.000   4.178   0.000   0.000  -0.005
 -0.000   0.000  -0.005   0.000   0.000   0.005  -0.000  -0.000
 -0.000   0.000   0.000  -0.005   0.000  -0.000   0.005  -0.000
 -0.000   0.000   0.000   0.000  -0.005  -0.000  -0.000   0.005
 total augmentation occupancy for first ion, spin component:           1
  1.491  -0.790   0.000   0.000   0.000   0.000  -0.000   0.000
 -0.790   0.787   0.000   0.000   0.000   0.000  -0.000  -0.000
  0.000   0.000   1.032  -0.000  -0.000  -0.564   0.000   0.000
 -0.000  -0.000   0.000   1.032   0.000   0.000  -0.564   0.000
  0.000   0.000   0.000  -0.000   1.032   0.000   0.000  -0.564
  0.000   0.000  -0.564   0.000   0.000   0.365   0.000   0.000
 -0.000   0.000   0.000  -0.564   0.000   0.000   0.365  -0.000
  0.000   0.000   0.000   0.000  -0.564   0.000   0.000   0.365


------------------------ aborting loop because EDIFF is reached ----------------------------------------


    CHARGE:  cpu time    0.0125: real time    0.0125
    FORLOC:  cpu time    0.0009: real time    0.0009
    FORNL :  cpu time    0.0095: real time    0.0095
    STRESS:  cpu time    0.0650: real time    0.0650
    FORCOR:  cpu time    0.0155: real time    0.0155
    FORHAR:  cpu time    0.0035: real time    0.0035
    MIXING:  cpu time    0.0006: real time    0.0006
    OFIELD:  cpu time    0.0000: real time    0.0000

  FORCE on cell =-STRESS in cart. coord.  units (eV):
  Direction    XX          YY          ZZ          XY          YZ          ZX
  --------------------------------------------------------------------------------------
  Alpha Z     3.36414     3.36414     3.36414
  Ewald     -76.18788   -76.18788   -76.18788    -0.00000     0.00000     0.00000
  Hartree     4.97625     4.97625     4.97625     0.00000     0.00000     0.00000
  E(xc)     -25.37128   -25.37128   -25.37128     0.00000     0.00000     0.00000
  Local     -29.21960   -29.21960   -29.21960     0.00001     0.00001     0.00001
  n-local    80.11813    74.40633    78.96667    -1.21821     0.61518     2.26836
  augment   -11.64811   -11.64811   -11.64811    -0.00001    -0.00001    -0.00001
  Kinetic    56.32340    55.14199    58.78947    -0.73833     0.99369     3.52747
  Fock        0.00000     0.00000     0.00000     0.00000     0.00000     0.00000
  -------------------------------------------------------------------------------------
  Total       0.49552     0.49552     0.49552    -0.00000     0.00000    -0.00000
  in kB      19.83484    19.83484    19.83484    -0.00000     0.00000    -0.00000
  external pressure =       19.83 kB  Pullay stress =        0.00 kB


 VOLUME and BASIS-vectors are now :
 -----------------------------------------------------------------------------
  energy-cutoff  :      500.00
  volume of cell :       40.03
      direct lattice vectors                 reciprocal lattice vectors
     2.715000000  2.715000000  0.000000000     0.184162063  0.184162063 -0.184162063
     0.000000000  2.715000000  2.715000000    -0.184162063  0.184162063  0.184162063
     2.715000000  0.000000000  2.715000000     0.184162063 -0.184162063  0.184162063

  length of vectors
     3.839589822  3.839589822  3.839589822     0.318978049  0.318978049  0.318978049


 FORCES acting on ions
    electron-ion (+dipol)            ewald-force                    non-local-force                 convergence-correction
 -----------------------------------------------------------------------------------------------
   0.801E-08 0.458E-08 0.801E-08   -.273E-14 0.111E-14 0.310E-14   0.139E-16 0.208E-16 -.694E-17   0.416E-12 0.419E-12 0.418E-12
   -.801E-08 -.458E-08 -.801E-08   0.315E-14 -.993E-15 -.291E-14   -.139E-16 -.416E-16 0.416E-16   -.421E-12 -.419E-12 -.421E-12
 -----------------------------------------------------------------------------------------------
   0.616E-13 -.146E-13 0.117E-12   0.422E-15 0.120E-15 0.187E-15   0.000E+00 -.208E-16 0.347E-16   -.544E-14 -.465E-15 -.289E-14
 
 
 POSITION                                       TOTAL-FORCE (eV/Angst)
 -----------------------------------------------------------------------------------
      0.00000      0.00000      0.00000        -0.000000     -0.000000     -0.000000
      1.35750      1.35750      1.35750         0.000000      0.000000      0.000000
 -----------------------------------------------------------------------------------
    total drift:                                0.000000     -0.000000      0.000000


--------------------------------------------------------------------------------------------------------



  FREE ENERGIE OF THE ION-ELECTRON SYSTEM (eV)
  ---------------------------------------------------
  free  energy   TOTEN  =       -10.84075071 eV

  energy  without entropy=      -10.84056101  energy(sigma->0) =      -10.84065586
 


--------------------------------------------------------------------------------------------------------


    POTLOK:  cpu time    0.0161: real time    0.0161


--------------------------------------------------------------------------------------------------------


 writing wavefunctions
     LOOP+:  cpu time   10.2465: real time   10.2810
    4ORBIT:  cpu time    0.0000: real time    0.0000

 total amount of memory used by VASP MPI-rank0    37604. kBytes
=======================================================================

   base      :      30000. kBytes
   nonl-proj :       1955. kBytes
   fftplans  :       1619. kBytes
   grid      :       3048. kBytes
   one-center:          6. kBytes
   wavefun   :        976. kBytes
 
  
  
 General timing and accounting informations for this job:
 ========================================================
  
                  Total CPU time used (sec):       11.006
                            User time (sec):        9.948
                          System time (sec):        1.058
                         Elapsed time (sec):       11.045
  
                   Maximum memory used (kb):       99296.
                   Average memory used (kb):           0.
  
                          Minor page faults:        30350
                          Major page faults:            0
                 Voluntary context switches:         1252
