fcc Si                                  
   5.43000000000000     
     0.500000    0.500000    0.000000
     0.000000    0.500000    0.500000
     0.500000    0.000000    0.500000
   Si
     2
Direct
  0.000000  0.000000  0.000000
  0.250000  0.250000  0.250000
 
   32   32   32
 -7.6927     -5.9549     -1.3065      4.8016      10.632      14.815      16.756      16.676      15.335      13.595    
  11.875      10.330      9.0393      8.0326      7.3158      6.8871      6.7444      6.8871      7.3158      8.0326    
  9.0393      10.330      11.875      13.595      15.335      16.676      16.756      14.815      10.632      4.8016    
 -1.3065     -5.9549     -5.9549     -2.5468      3.1543      9.4072      14.555      17.596      18.398      17.532    
  15.885      14.118      12.454      11.002      9.8125      8.9051      8.2920      7.9825      7.9825      8.2919    
  8.9051      9.8125      11.003      12.454      14.118      15.885      17.532      18.398      17.596      14.555    
  9.4073      3.1544     -2.5467     -5.9549     -1.3065      3.1543      8.9366      14.335      18.064      19.634    
  19.338      17.948      16.243      14.556      13.020      11.700      10.630      9.8356      9.3444      9.1778    
  9.3444      9.8357      10.630      11.700      13.020      14.556      16.243      17.948      19.338      19.634    
  18.064      14.335      8.9368      3.1545     -1.3064     -2.9852      4.8016      9.4072      14.335      18.213    
  20.279      20.529      19.524      18.017      16.429      14.916      13.553      12.382      11.438      10.767    
  10.417      10.417      10.767      11.438      12.382      13.553      14.916      16.429      18.017      19.524    
  20.529      20.279      18.213      14.335      9.4074      4.8018      2.0121      2.0120      10.632      14.555    
  18.064      20.279      20.944      20.380      19.203      17.848      16.485      15.194      14.014      12.984    
  12.164      11.629      11.442      11.629      12.164      12.984      14.014      15.194      16.485      17.848    
  19.203      20.380      20.944      20.279      18.064      14.555      10.632      7.5381      6.3620      7.5381    
  14.815      17.596      19.634      20.529      20.380      19.620      18.616      17.526      16.429      15.356    
  14.335      13.429      12.733      12.351      12.351      12.733      13.429      14.335      15.356      16.429    
  17.526      18.616      19.620      20.380      20.529      19.634      17.596      14.815      12.122      10.462    
  10.462      12.122      16.756      18.398      19.338      19.524      19.203      18.616      17.891      17.095    
  16.243      15.344      14.445      13.645      13.078      12.871      13.078      13.645      14.445      15.344    
  16.243      17.095      17.891      18.616      19.203      19.524      19.338      18.398      16.756      14.832    
  13.274      12.676      13.275      14.832      16.676      17.532      17.948      18.017      17.848      17.526    
  17.095      16.554      15.885      15.106      14.287      13.570      13.145      13.145      13.570      14.287    
  15.106      15.885      16.554      17.095      17.526      17.848      18.017      17.948      17.532      16.676    
  15.497      14.338      13.615      13.615      14.338      15.497      15.335      15.885      16.243      16.429    
  16.485      16.429      16.243      15.885      15.335      14.614      13.838      13.226      12.993      13.226    
  13.838      14.614      15.335      15.885      16.243      16.429      16.485      16.429      16.243      15.885    
  15.335      14.614      13.838      13.226      12.993      13.226      13.838      14.614      13.595      14.118    
  14.556      14.916      15.194      15.356      15.344      15.106      14.614      13.920      13.224      12.785    
  12.785      13.224      13.920      14.614      15.106      15.344      15.356      15.194      14.916      14.556    
  14.118      13.595      13.006      12.412      11.915      11.626      11.626      11.915      12.412      13.006    
  11.875      12.454      13.020      13.553      14.014      14.335      14.445      14.287      13.838      13.224    
  12.692      12.482      12.692      13.224      13.838      14.287      14.445      14.335      14.014      13.553    
  13.020      12.454      11.875      11.297      10.750      10.287      9.9717      9.8595      9.9716      10.287    
  10.750      11.297      10.330      11.002      11.700      12.382      12.984      13.429      13.645      13.570    
  13.226      12.785      12.482      12.482      12.785      13.226      13.570      13.645      13.429      12.984    
  12.382      11.700      11.002      10.330      9.7061      9.1499      8.6874      8.3511      8.1731      8.1731    
  8.3511      8.6873      9.1498      9.7060      9.0393      9.8125      10.630      11.438      12.164      12.733    
  13.078      13.145      12.993      12.785      12.692      12.785      12.993      13.145      13.078      12.733    
  12.164      11.438      10.630      9.8124      9.0392      8.3428      7.7423      7.2520      6.8861      6.6590    
  6.5819      6.6589      6.8860      7.2519      7.7423      8.3428      8.0326      8.9051      9.8356      10.767    
  11.629      12.351      12.871      13.145      13.226      13.224      13.224      13.226      13.145      12.871    
  12.351      11.629      10.767      9.8357      8.9050      8.0325      7.2556      6.5945      6.0588      5.6531    
  5.3804      5.2433      5.2433      5.3803      5.6530      6.0588      6.5946      7.2557      7.3158      8.2920    
  9.3444      10.417      11.442      12.351      13.078      13.570      13.838      13.920      13.838      13.570    
  13.078      12.351      11.442      10.417      9.3444      8.2920      7.3158      6.4534      5.7242      5.1345    
  4.6828      4.3647      4.1758      4.1132      4.1758      4.3647      4.6828      5.1346      5.7243      6.4534    
  6.8871      7.9825      9.1778      10.417      11.629      12.733      13.645      14.287      14.614      14.614    
  14.287      13.645      12.733      11.629      10.417      9.1778      7.9825      6.8871      5.9278      5.1218    
  4.4712      3.9692      3.6053      3.3691      3.2530      3.2530      3.3692      3.6054      3.9693      4.4713    
  5.1218      5.9278      6.7444      7.9825      9.3444      10.767      12.164      13.429      14.445      15.106    
  15.335      15.106      14.445      13.429      12.164      10.767      9.3444      7.9825      6.7445      5.6683    
  4.7696      4.0468      3.4876      3.0752      2.7933      2.6294      2.5756      2.6294      2.7933      3.0752    
  3.4876      4.0468      4.7695      5.6682      6.8871      8.2919      9.8357      11.438      12.984      14.335    
  15.344      15.885      15.885      15.344      14.335      12.984      11.438      9.8357      8.2920      6.8871    
  5.6683      4.6538      3.8405      3.2111      2.7427      2.4127      2.2028      2.1008      2.1008      2.2028    
  2.4126      2.7426      3.2110      3.8404      4.6538      5.6682      7.3158      8.9051      10.630      12.382    
  14.014      15.356      16.243      16.554      16.243      15.356      14.014      12.382      10.630      8.9050    
  7.3158      5.9278      4.7696      3.8405      3.1211      2.5829      2.1969      1.9384      1.7899      1.7415    
  1.7899      1.9384      2.1969      2.5829      3.1210      3.8404      4.7695      5.9278      8.0326      9.8125    
  11.700      13.553      15.194      16.429      17.095      17.095      16.429      15.194      13.553      11.700    
  9.8124      8.0325      6.4534      5.1218      4.0468      3.2111      2.5829      2.1271      1.8121      1.6143    
  1.5189      1.5189      1.6143      1.8120      2.1271      2.5829      3.2110      4.0468      5.1218      6.4534    
  9.0393      11.003      13.020      14.916      16.485      17.526      17.891      17.526      16.485      14.916    
  13.020      11.002      9.0392      7.2556      5.7242      4.4712      3.4876      2.7427      2.1969      1.8121    
  1.5575      1.4124      1.3653      1.4124      1.5575      1.8120      2.1969      2.7427      3.4876      4.4713    
  5.7243      7.2557      10.330      12.454      14.556      16.429      17.848      18.616      18.616      17.848    
  16.429      14.556      12.454      10.330      8.3428      6.5945      5.1345      3.9692      3.0752      2.4127    
  1.9384      1.6143      1.4124      1.3155      1.3155      1.4124      1.6143      1.9383      2.4126      3.0752    
  3.9693      5.1346      6.5946      8.3428      11.875      14.118      16.243      18.017      19.203      19.620    
  19.203      18.017      16.243      14.118      11.875      9.7061      7.7423      6.0588      4.6828      3.6053    
  2.7933      2.2028      1.7899      1.5189      1.3653      1.3155      1.3653      1.5189      1.7899      2.2028    
  2.7933      3.6053      4.6828      6.0588      7.7423      9.7060      13.595      15.885      17.948      19.524    
  20.380      20.380      19.524      17.948      15.885      13.595      11.297      9.1499      7.2520      5.6531    
  4.3647      3.3691      2.6294      2.1008      1.7415      1.5189      1.4124      1.4124      1.5189      1.7415    
  2.1009      2.6294      3.3691      4.3647      5.6530      7.2519      9.1499      11.297      15.335      17.532    
  19.338      20.529      20.944      20.529      19.338      17.532      15.335      13.006      10.750      8.6874    
  6.8861      5.3804      4.1758      3.2530      2.5756      2.1008      1.7899      1.6143      1.5575      1.6143    
  1.7899      2.1009      2.5756      3.2530      4.1758      5.3804      6.8860      8.6873      10.750      13.006    
  16.676      18.398      19.634      20.279      20.279      19.634      18.398      16.676      14.614      12.412    
  10.287      8.3511      6.6590      5.2433      4.1132      3.2530      2.6294      2.2028      1.9384      1.8120    
  1.8120      1.9383      2.2028      2.6294      3.2530      4.1131      5.2433      6.6590      8.3511      10.287    
  12.412      14.614      16.756      17.596      18.064      18.213      18.064      17.596      16.756      15.497    
  13.838      11.915      9.9717      8.1731      6.5819      5.2433      4.1758      3.3692      2.7933      2.4126    
  2.1969      2.1271      2.1969      2.4126      2.7933      3.3691      4.1758      5.2433      6.5818      8.1731    
  9.9717      11.915      13.838      15.497      14.815      14.555      14.335      14.335      14.555      14.815    
  14.832      14.338      13.226      11.626      9.8595      8.1731      6.6589      5.3803      4.3647      3.6054    
  3.0752      2.7426      2.5829      2.5829      2.7427      3.0752      3.6053      4.3647      5.3804      6.6590    
  8.1731      9.8595      11.626      13.226      14.338      14.832      10.632      9.4073      8.9368      9.4074    
  10.632      12.122      13.274      13.615      12.993      11.626      9.9716      8.3511      6.8860      5.6530    
  4.6828      3.9693      3.4876      3.2110      3.1210      3.2110      3.4876      3.9693      4.6828      5.6530    
  6.8860      8.3511      9.9717      11.626      12.993      13.615      13.274      12.122      4.8016      3.1544    
  3.1545      4.8018      7.5381      10.462      12.676      13.615      13.226      11.915      10.287      8.6873    
  7.2519      6.0588      5.1346      4.4713      4.0468      3.8404      3.8404      4.0468      4.4713      5.1346    
  6.0588      7.2519      8.6873      10.287      11.915      13.226      13.615      12.676      10.462      7.5379    
 -1.3065     -2.5467     -1.3064      2.0121      6.3620      10.462      13.275      14.338      13.838      12.412    
  10.750      9.1498      7.7423      6.5946      5.7243      5.1218      4.7695      4.6538      4.7695      5.1218    
  5.7243      6.5946      7.7423      9.1499      10.750      12.412      13.838      14.338      13.274      10.462    
  6.3617      2.0119     -5.9549     -5.9549     -2.9852      2.0120      7.5381      12.122      14.832      15.497    
  14.614      13.006      11.297      9.7060      8.3428      7.2557      6.4534      5.9278      5.6682      5.6682    
  5.9278      6.4534      7.2557      8.3428      9.7060      11.297      13.006      14.614      15.497      14.832    
  12.122      7.5379      2.0119     -2.9852     -5.9549     -2.5468      3.1543      9.4072      14.555      17.596    
  18.398      17.532      15.885      14.118      12.454      11.002      9.8125      8.9051      8.2920      7.9825    
  7.9825      8.2919      8.9051      9.8125      11.003      12.454      14.118      15.885      17.532      18.398    
  17.596      14.555      9.4073      3.1544     -2.5467     -5.9549     -2.5468      2.1811      8.3235      14.086    
  18.110      19.873      19.666      18.284      16.554      14.837      13.271      11.926      10.833      10.022    
  9.5190      9.3484      9.5190      10.022      10.833      11.926      13.271      14.837      16.554      18.284    
  19.666      19.873      18.110      14.086      8.3237      2.1813     -2.5467     -4.3243      3.1543      8.3235    
  13.891      18.335      20.801      21.258      20.300      18.745      17.095      15.520      14.100      12.876    
  11.887      11.182      10.814      10.814      11.182      11.887      12.876      14.100      15.520      17.095    
  18.745      20.300      21.258      20.801      18.335      13.891      8.3237      3.1545     0.32663E-01 0.32596E-01
  9.4072      14.086      18.335      21.118      22.111      21.648      20.419      18.978      17.526      16.149    
  14.886      13.777      12.888      12.305      12.101      12.305      12.888      13.777      14.886      16.149    
  17.526      18.978      20.419      21.648      22.111      21.118      18.335      14.086      9.4074      5.7418    
  4.3524      5.7416      14.555      18.110      20.801      22.111      22.123      21.330      20.236      19.046    
  17.848      16.669      15.537      14.520      13.732      13.296      13.296      13.732      14.520      15.537    
  16.669      17.848      19.046      20.236      21.330      22.123      22.111      20.801      18.110      14.555    
  11.160      9.0800      9.0800      11.159      17.596      19.873      21.258      21.648      21.330      20.678    
  19.869      18.978      18.017      16.987      15.937      14.974      14.277      14.020      14.277      14.974    
  15.936      16.987      18.017      18.978      19.869      20.678      21.330      21.648      21.258      19.873    
  17.596      14.994      12.913      12.117      12.913      14.994      18.398      19.666      20.300      20.419    
  20.236      19.869      19.375      18.745      17.948      16.980      15.911      14.953      14.379      14.379    
  14.953      15.911      16.980      17.948      18.745      19.375      19.869      20.236      20.419      20.300    
  19.666      18.398      16.693      15.038      14.014      14.014      15.038      16.693      17.532      18.284    
  18.745      18.978      19.046      18.978      18.745      18.284      17.532      16.484      15.336      14.429    
  14.083      14.429      15.336      16.484      17.532      18.284      18.745      18.978      19.047      18.978    
  18.745      18.284      17.532      16.484      15.336      14.429      14.083      14.429      15.336      16.484    
  15.885      16.554      17.095      17.526      17.848      18.017      17.948      17.532      16.676      15.497    
  14.338      13.615      13.615      14.338      15.497      16.676      17.532      17.948      18.017      17.848    
  17.526      17.095      16.554      15.885      15.106      14.287      13.570      13.145      13.145      13.570    
  14.287      15.106      14.118      14.837      15.520      16.149      16.669      16.987      16.980      16.484    
  15.497      14.283      13.277      12.887      13.277      14.283      15.497      16.484      16.980      16.987    
  16.669      16.149      15.520      14.837      14.118      13.377      12.653      12.023      11.588      11.432    
  11.588      12.023      12.653      13.377      12.454      13.271      14.100      14.886      15.537      15.937    
  15.911      15.336      14.338      13.277      12.597      12.597      13.277      14.338      15.336      15.911    
  15.936      15.537      14.886      14.100      13.271      12.454      11.677      10.964      10.354      9.9013    
  9.6579      9.6578      9.9012      10.354      10.964      11.676      11.002      11.926      12.876      13.777    
  14.520      14.974      14.953      14.429      13.615      12.887      12.597      12.887      13.615      14.429    
  14.953      14.974      14.520      13.777      12.876      11.926      11.002      10.153      9.4055      8.7806    
  8.3042      8.0036      7.9007      8.0036      8.3042      8.7805      9.4054      10.153      9.8125      10.833    
  11.887      12.888      13.732      14.277      14.379      14.083      13.615      13.277      13.277      13.615    
  14.082      14.379      14.277      13.732      12.888      11.887      10.833      9.8124      8.8829      8.0772    
  7.4127      6.9008      6.5518      6.3746      6.3746      6.5518      6.9008      7.4127      8.0772      8.8829    
  8.9051      10.022      11.182      12.305      13.296      14.020      14.379      14.429      14.338      14.283    
  14.338      14.429      14.379      14.020      13.296      12.305      11.182      10.022      8.9050      7.8931    
  7.0212      6.3051      5.7491      5.3531      5.1160      5.0370      5.1159      5.3531      5.7491      6.3052    
  7.0213      7.8932      8.2920      9.5190      10.814      12.101      13.296      14.277      14.953      15.336    
  15.497      15.497      15.336      14.953      14.277      13.296      12.101      10.814      9.5190      8.2920    
  7.1890      6.2435      5.4686      4.8635      4.4207      4.1315      3.9887      3.9888      4.1315      4.4208    
  4.8636      5.4687      6.2436      7.1890      7.9825      9.3484      10.814      12.305      13.732      14.974    
  15.911      16.484      16.676      16.484      15.911      14.974      13.732      12.305      10.814      9.3485    
  7.9825      6.7681      5.7347      4.8909      4.2306      3.7396      3.4022      3.2054      3.1407      3.2055    
  3.4023      3.7397      4.2306      4.8909      5.7346      6.7681      7.9825      9.5190      11.182      12.888    
  14.520      15.936      16.980      17.532      17.532      16.980      15.936      14.520      12.888      11.182    
  9.5190      7.9825      6.6281      5.4836      4.5536      3.8265      3.2814      2.8956      2.6497      2.5301    
  2.5301      2.6497      2.8956      3.2814      3.8265      4.5536      5.4835      6.6281      8.2919      10.022    
  11.887      13.777      15.537      16.987      17.948      18.284      17.948      16.987      15.537      13.777    
  11.887      10.022      8.2920      6.7681      5.4836      4.4428      3.6302      3.0187      2.5785      2.2832    
  2.1136      2.0583      2.1136      2.2832      2.5784      3.0187      3.6302      4.4428      5.4835      6.7681    
  8.9051      10.833      12.876      14.886      16.669      18.017      18.745      18.745      18.017      16.669    
  14.886      12.876      10.833      8.9050      7.1890      5.7347      4.5536      3.6302      2.9332      2.4262    
  2.0756      1.8556      1.7495      1.7495      1.8556      2.0756      2.4261      2.9332      3.6302      4.5536    
  5.7347      7.1890      9.8125      11.926      14.100      16.149      17.848      18.978      19.375      18.978    
  17.848      16.149      14.100      11.926      9.8124      7.8931      6.2435      4.8909      3.8265      3.0187    
  2.4262      2.0084      1.7323      1.5751      1.5241      1.5751      1.7323      2.0084      2.4262      3.0187    
  3.8265      4.8909      6.2436      7.8932      11.003      13.271      15.520      17.526      19.046      19.869    
  19.869      19.047      17.526      15.520      13.271      11.002      8.8829      7.0212      5.4686      4.2306    
  3.2814      2.5785      2.0756      1.7323      1.5187      1.4162      1.4162      1.5187      1.7323      2.0756    
  2.5785      3.2814      4.2307      5.4687      7.0213      8.8830      12.454      14.837      17.095      18.978    
  20.236      20.678      20.236      18.978      17.095      14.837      12.454      10.153      8.0772      6.3051    
  4.8635      3.7396      2.8956      2.2832      1.8556      1.5751      1.4162      1.3647      1.4162      1.5751    
  1.8556      2.2832      2.8956      3.7397      4.8636      6.3051      8.0773      10.153      14.118      16.554    
  18.745      20.419      21.330      21.330      20.419      18.745      16.554      14.118      11.677      9.4055    
  7.4127      5.7491      4.4207      3.4022      2.6497      2.1136      1.7495      1.5241      1.4162      1.4162    
  1.5241      1.7495      2.1136      2.6497      3.4023      4.4208      5.7491      7.4127      9.4054      11.676    
  15.885      18.284      20.300      21.648      22.123      21.648      20.300      18.284      15.885      13.377    
  10.964      8.7806      6.9008      5.3531      4.1315      3.2054      2.5301      2.0583      1.7495      1.5751    
  1.5187      1.5751      1.7495      2.0583      2.5301      3.2054      4.1315      5.3530      6.9008      8.7805    
  10.964      13.377      17.532      19.666      21.258      22.111      22.111      21.258      19.666      17.532    
  15.106      12.653      10.354      8.3042      6.5518      5.1160      3.9887      3.1407      2.5301      2.1136    
  1.8556      1.7323      1.7323      1.8556      2.1136      2.5301      3.1408      3.9887      5.1159      6.5518    
  8.3042      10.354      12.653      15.106      18.398      19.873      20.801      21.118      20.801      19.873    
  18.398      16.484      14.287      12.023      9.9013      8.0036      6.3746      5.0370      3.9888      3.2055    
  2.6497      2.2832      2.0756      2.0084      2.0756      2.2832      2.6497      3.2054      3.9887      5.0370    
  6.3746      8.0036      9.9013      12.023      14.287      16.484      17.596      18.110      18.335      18.335    
  18.110      17.596      16.693      15.336      13.570      11.588      9.6579      7.9007      6.3746      5.1159    
  4.1315      3.4023      2.8956      2.5784      2.4261      2.4262      2.5785      2.8956      3.4023      4.1315    
  5.1159      6.3746      7.9007      9.6579      11.588      13.570      15.336      16.693      14.555      14.086    
  13.891      14.086      14.555      14.994      15.038      14.429      13.145      11.432      9.6578      8.0036    
  6.5518      5.3531      4.4208      3.7397      3.2814      3.0187      2.9332      3.0187      3.2814      3.7397    
  4.4208      5.3530      6.5518      8.0036      9.6579      11.432      13.145      14.429      15.038      14.994    
  9.4073      8.3237      8.3237      9.4074      11.160      12.913      14.014      14.083      13.145      11.588    
  9.9012      8.3042      6.9008      5.7491      4.8636      4.2306      3.8265      3.6302      3.6302      3.8265    
  4.2307      4.8636      5.7491      6.9008      8.3042      9.9013      11.588      13.145      14.083      14.014    
  12.913      11.160      3.1544      2.1813      3.1545      5.7418      9.0800      12.117      14.014      14.429    
  13.570      12.023      10.354      8.7805      7.4127      6.3052      5.4687      4.8909      4.5536      4.4428    
  4.5536      4.8909      5.4687      6.3051      7.4127      8.7805      10.354      12.023      13.570      14.429    
  14.014      12.117      9.0799      5.7417     -2.5467     -2.5467     0.32663E-01  4.3524      9.0800      12.913    
  15.038      15.336      14.287      12.653      10.964      9.4054      8.0772      7.0213      6.2436      5.7346    
  5.4835      5.4835      5.7347      6.2436      7.0213      8.0773      9.4054      10.964      12.653      14.287    
  15.336      15.038      12.913      9.0799      4.3523     0.32599E-01 -5.9549     -4.3243     0.32596E-01  5.7416    
  11.159      14.994      16.693      16.484      15.106      13.377      11.676      10.153      8.8829      7.8932    
  7.1890      6.7681      6.6281      6.7681      7.1890      7.8932      8.8830      10.153      11.676      13.377    
  15.106      16.484      16.693      14.994      11.160      5.7417     0.32599E-01 -4.3243     -1.3065      3.1543    
  8.9366      14.335      18.064      19.634      19.338      17.948      16.243      14.556      13.020      11.700    
  10.630      9.8356      9.3444      9.1778      9.3444      9.8357      10.630      11.700      13.020      14.556    
  16.243      17.948      19.338      19.634      18.064      14.335      8.9368      3.1545     -1.3064     -2.9852    
  3.1543      8.3235      13.891      18.335      20.801      21.258      20.300      18.745      17.095      15.520    
  14.100      12.876      11.887      11.182      10.814      10.814      11.182      11.887      12.876      14.100    
  15.520      17.095      18.745      20.300      21.258      20.801      18.335      13.891      8.3237      3.1545    
 0.32663E-01 0.32595E-01  8.9366      13.891      18.409      21.401      22.516      22.093      20.848      19.375    
  17.891      16.484      15.191      14.054      13.141      12.542      12.332      12.542      13.141      14.054    
  15.191      16.484      17.891      19.375      20.848      22.093      22.516      21.401      18.410      13.891    
  8.9368      5.0632      3.5961      5.0631      14.335      18.335      21.401      22.954      23.065      22.260    
  21.114      19.869      18.616      17.380      16.187      15.110      14.270      13.802      13.802      14.270    
  15.110      16.187      17.380      18.616      19.869      21.114      22.260      23.065      22.954      21.401    
  18.335      14.335      10.539      8.2198      8.2197      10.539      18.064      20.801      22.516      23.065    
  22.759      22.058      21.190      20.236      19.203      18.086      16.927      15.845      15.052      14.759    
  15.052      15.844      16.927      18.086      19.202      20.236      21.190      22.058      22.759      23.065    
  22.516      20.801      18.064      14.973      12.516      11.578      12.516      14.973      19.634      21.258    
  22.093      22.260      22.058      21.655      21.114      20.419      19.524      18.391      17.105      15.940    
  15.239      15.239      15.940      17.105      18.391      19.524      20.419      21.114      21.655      22.058    
  22.260      22.093      21.258      19.634      17.479      15.405      14.128      14.128      15.406      17.480    
  19.338      20.300      20.848      21.114      21.190      21.114      20.848      20.300      19.338      17.966    
  16.457      15.264      14.809      15.264      16.457      17.966      19.338      20.300      20.848      21.114    
  21.190      21.114      20.848      20.300      19.338      17.966      16.457      15.264      14.809      15.264    
  16.457      17.966      17.948      18.745      19.375      19.869      20.236      20.419      20.300      19.666    
  18.398      16.693      15.038      14.014      14.014      15.038      16.693      18.398      19.666      20.300    
  20.419      20.236      19.869      19.375      18.745      17.948      16.980      15.911      14.953      14.379    
  14.379      14.953      15.911      16.980      16.243      17.095      17.891      18.616      19.203      19.524    
  19.338      18.398      16.756      14.832      13.275      12.676      13.274      14.832      16.756      18.398    
  19.338      19.524      19.203      18.616      17.891      17.095      16.243      15.344      14.445      13.645    
  13.078      12.871      13.078      13.645      14.445      15.344      14.556      15.520      16.484      17.380    
  18.086      18.391      17.966      16.693      14.832      12.976      11.817      11.817      12.976      14.832    
  16.693      17.966      18.391      18.086      17.380      16.484      15.520      14.556      13.623      12.749    
  11.985      11.406      11.092      11.092      11.406      11.985      12.749      13.623      13.020      14.100    
  15.191      16.187      16.927      17.105      16.457      15.038      13.275      11.817      11.253      11.817    
  13.274      15.038      16.457      17.105      16.927      16.187      15.191      14.100      13.020      12.011    
  11.106      10.336      9.7379      9.3550      9.2228      9.3550      9.7378      10.336      11.106      12.011    
  11.700      12.876      14.054      15.110      15.845      15.940      15.264      14.014      12.676      11.817    
  11.817      12.676      14.014      15.264      15.940      15.844      15.110      14.054      12.876      11.700    
  10.608      9.6463      8.8406      8.2102      7.7743      7.5509      7.5509      7.7743      8.2101      8.8406    
  9.6462      10.608      10.630      11.887      13.141      14.270      15.052      15.239      14.809      14.014    
  13.274      12.976      13.274      14.014      14.809      15.239      15.052      14.270      13.141      11.887    