   2   2   0   0
  0.2001288E+02  0.3839590E-09  0.3839590E-09  0.3839590E-09  0.5000000E-15
  1.000000000000000E-004
  CAR 
 fcc Si                                  
     43.54700080     -8.45884175  301      6.23097304      1.00000000
     -8.459  0.0000E+00  0.0000E+00
     -8.285  0.0000E+00  0.0000E+00
     -8.112  0.0000E+00  0.0000E+00
     -7.939  0.0000E+00  0.0000E+00
     -7.765  0.0000E+00  0.0000E+00
     -7.592  0.0000E+00  0.0000E+00
     -7.419  0.0000E+00  0.0000E+00
     -7.245  0.0000E+00  0.0000E+00
     -7.072  0.0000E+00  0.0000E+00
     -6.899  0.0000E+00  0.0000E+00
     -6.725  0.0000E+00  0.0000E+00
     -6.552  0.9237E-11  0.1601E-11
     -6.379  0.5434E-05  0.9420E-06
     -6.205  0.1070E-01  0.1855E-02
     -6.032  0.1360E+00  0.2543E-01
     -5.859  0.3352E-01  0.3124E-01
     -5.685  0.7471E-04  0.3125E-01
     -5.512  0.1506E-02  0.3151E-01
     -5.338  0.3818E+00  0.9769E-01
     -5.165  0.1026E+01  0.2756E+00
     -4.992  0.6933E+00  0.3958E+00
     -4.818  0.4177E+00  0.4682E+00
     -4.645  0.3396E-02  0.4687E+00
     -4.472  0.1195E-06  0.4688E+00
     -4.298  0.4362E-03  0.4688E+00
     -4.125  0.2995E+00  0.5208E+00
     -3.952  0.1679E+01  0.8119E+00
     -3.778  0.4663E+00  0.8927E+00
     -3.605  0.4302E+00  0.9673E+00
     -3.432  0.8852E+00  0.1121E+01
     -3.258  0.3222E+01  0.1679E+01
     -3.085  0.2278E+00  0.1719E+01
     -2.912  0.1013E-03  0.1719E+01
     -2.738  0.1495E-09  0.1719E+01
     -2.565  0.0000E+00  0.1719E+01
     -2.391  0.1441E-09  0.1719E+01
     -2.218  0.5994E-04  0.1719E+01
     -2.045  0.8524E-01  0.1734E+01
     -1.871  0.1046E+01  0.1915E+01
     -1.698  0.1846E+01  0.2235E+01
     -1.525  0.2677E+00  0.2281E+01
     -1.351  0.4969E-03  0.2281E+01
     -1.178  0.1048E+00  0.2299E+01
     -1.005  0.5575E+00  0.2396E+01
     -0.831  0.5866E-01  0.2406E+01
     -0.658  0.7979E-01  0.2420E+01
     -0.485  0.2699E+01  0.2888E+01
     -0.311  0.1537E+01  0.3154E+01
     -0.138  0.1052E-01  0.3156E+01
      0.035  0.7136E-06  0.3156E+01
      0.209  0.9358E-02  0.3158E+01
      0.382  0.9229E+00  0.3318E+01
      0.556  0.1206E+01  0.3527E+01
      0.729  0.2460E-01  0.3531E+01
      0.902  0.2438E-05  0.3531E+01
      1.076  0.7496E-12  0.3531E+01
      1.249  0.0000E+00  0.3531E+01
      1.422  0.9058E-13  0.3531E+01
      1.596  0.5145E-06  0.3531E+01
      1.769  0.9408E-02  0.3533E+01
      1.942  0.1049E+01  0.3715E+01
      2.116  0.3497E+01  0.4321E+01
      2.289  0.2503E+01  0.4755E+01
      2.462  0.3883E+01  0.5428E+01
      2.636  0.2345E+00  0.5469E+01
      2.809  0.1912E-02  0.5469E+01
      2.982  0.3385E+00  0.5528E+01
      3.156  0.7148E+00  0.5652E+01
      3.329  0.2648E-01  0.5656E+01
      3.503  0.4461E-01  0.5664E+01
      3.676  0.2354E+01  0.6072E+01
      3.849  0.1971E+01  0.6414E+01
      4.023  0.1503E+01  0.6674E+01
      4.196  0.6144E+00  0.6781E+01
      4.369  0.1554E-01  0.6783E+01
      4.543  0.1052E+01  0.6966E+01
      4.716  0.2094E+01  0.7329E+01
      4.889  0.4462E+00  0.7406E+01
      5.063  0.6174E+00  0.7513E+01
      5.236  0.2127E+01  0.7882E+01
      5.409  0.1401E+00  0.7906E+01
      5.583  0.6201E-04  0.7906E+01
      5.756  0.1821E-01  0.7909E+01
      5.929  0.3783E+00  0.7975E+01
      6.103  0.1438E+00  0.8000E+01
      6.276  0.5778E-03  0.8000E+01
      6.449  0.2892E-01  0.8005E+01
      6.623  0.7268E+00  0.8131E+01
      6.796  0.3262E+00  0.8188E+01
      6.970  0.3447E+00  0.8247E+01
      7.143  0.7117E+00  0.8371E+01
      7.316  0.6196E+00  0.8478E+01
      7.490  0.3917E+01  0.9157E+01
      7.663  0.5353E+00  0.9250E+01
      7.836  0.2011E+00  0.9285E+01
      8.010  0.1118E+01  0.9479E+01
      8.183  0.1650E+00  0.9507E+01
      8.356  0.1432E+01  0.9755E+01
      8.530  0.1177E+01  0.9959E+01
      8.703  0.5377E-01  0.9969E+01
      8.876  0.2843E-01  0.9974E+01
      9.050  0.7370E+00  0.1010E+02
      9.223  0.1168E+01  0.1030E+02
      9.396  0.2415E+01  0.1072E+02
      9.570  0.1228E+01  0.1094E+02
      9.743  0.1197E-01  0.1094E+02
      9.917  0.6595E-03  0.1094E+02
     10.090  0.3565E+00  0.1100E+02
     10.263  0.2321E+01  0.1140E+02
     10.437  0.3484E+01  0.1201E+02
     10.610  0.7864E+00  0.1214E+02
     10.783  0.1773E+01  0.1245E+02
     10.957  0.2037E+01  0.1280E+02
     11.130  0.2002E+01  0.1315E+02
     11.303  0.2188E+00  0.1319E+02
     11.477  0.6184E-01  0.1320E+02
     11.650  0.3492E+01  0.1380E+02
     11.823  0.5421E+01  0.1474E+02
     11.997  0.2502E+01  0.1518E+02
     12.170  0.1458E+01  0.1543E+02
     12.343  0.9686E+00  0.1560E+02
     12.517  0.1214E+01  0.1581E+02
     12.690  0.8647E-01  0.1582E+02
     12.864  0.1046E+01  0.1600E+02
     13.037  0.8824E+00  0.1616E+02
     13.210  0.2170E+01  0.1653E+02
     13.384  0.1671E+00  0.1656E+02
     13.557  0.2320E+00  0.1660E+02
     13.730  0.7928E+00  0.1674E+02
     13.904  0.3994E+00  0.1681E+02
     14.077  0.8505E+00  0.1696E+02
     14.250  0.6794E-01  0.1697E+02
     14.424  0.3675E-04  0.1697E+02
     14.597  0.1862E-03  0.1697E+02
     14.770  0.2210E+00  0.1701E+02
     14.944  0.1952E+01  0.1735E+02
     15.117  0.3504E+00  0.1741E+02
     15.290  0.9694E-03  0.1741E+02
     15.464  0.2994E+00  0.1746E+02
     15.637  0.1677E+01  0.1775E+02
     15.811  0.1899E+00  0.1778E+02
     15.984  0.5444E+00  0.1788E+02
     16.157  0.3543E+01  0.1849E+02
     16.331  0.1415E+01  0.1874E+02
     16.504  0.4343E+01  0.1949E+02
     16.677  0.3442E+01  0.2009E+02
     16.851  0.1142E+00  0.2011E+02
     17.024  0.8536E+00  0.2025E+02
     17.197  0.1143E+01  0.2045E+02
     17.371  0.2454E+01  0.2088E+02
     17.544  0.3545E+00  0.2094E+02
     17.717  0.5450E+00  0.2103E+02
     17.891  0.8767E+00  0.2118E+02
     18.064  0.1279E+01  0.2141E+02
     18.237  0.2941E+01  0.2192E+02
     18.411  0.3719E+00  0.2198E+02
     18.584  0.3616E+01  0.2261E+02
     18.758  0.3643E+01  0.2324E+02
     18.931  0.4881E+01  0.2409E+02
     19.104  0.6164E+01  0.2515E+02
     19.278  0.1873E+01  0.2548E+02
     19.451  0.1742E+01  0.2578E+02
     19.624  0.5937E+00  0.2588E+02
     19.798  0.6558E+00  0.2600E+02
     19.971  0.1750E-01  0.2600E+02
     20.144  0.2380E-05  0.2600E+02
     20.318  0.2964E-03  0.2600E+02
     20.491  0.2989E+00  0.2605E+02
     20.664  0.2248E+01  0.2644E+02
     20.838  0.3366E+00  0.2650E+02
     21.011  0.3985E-03  0.2650E+02
     21.184  0.1369E-01  0.2650E+02
     21.358  0.1388E+00  0.2653E+02
     21.531  0.2774E-01  0.2653E+02
     21.705  0.4683E-04  0.2653E+02
     21.878  0.2880E-09  0.2653E+02
     22.051  0.3767E-05  0.2653E+02
     22.225  0.3097E-01  0.2654E+02
     22.398  0.1280E+01  0.2676E+02
     22.571  0.1609E+01  0.2704E+02
     22.745  0.2341E+01  0.2744E+02
     22.918  0.3212E+01  0.2800E+02
     23.091  0.1220E+01  0.2821E+02
     23.265  0.1296E+01  0.2844E+02
     23.438  0.2761E+01  0.2891E+02
     23.611  0.1756E+01  0.2922E+02
     23.785  0.4469E+01  0.2999E+02
     23.958  0.2833E+01  0.3049E+02
     24.131  0.9602E+00  0.3065E+02
     24.305  0.3805E+00  0.3072E+02
     24.478  0.1914E+01  0.3105E+02
     24.652  0.4686E+01  0.3186E+02
     24.825  0.3270E+01  0.3243E+02
     24.998  0.2392E+01  0.3284E+02
     25.172  0.5271E+00  0.3293E+02
     25.345  0.3223E+01  0.3349E+02
     25.518  0.2390E+01  0.3391E+02
     25.692  0.4077E+01  0.3461E+02
     25.865  0.3231E+01  0.3517E+02
     26.038  0.5710E+01  0.3616E+02
     26.212  0.1344E+01  0.3640E+02
     26.385  0.8226E+00  0.3654E+02
     26.558  0.3110E+00  0.3659E+02
     26.732  0.2431E-02  0.3659E+02
     26.905  0.2749E+00  0.3664E+02
     27.078  0.7678E+00  0.3677E+02
     27.252  0.5473E+00  0.3687E+02
     27.425  0.2121E+01  0.3724E+02
     27.599  0.1824E+01  0.3755E+02
     27.772  0.2526E+01  0.3799E+02
     27.945  0.1192E+01  0.3820E+02
     28.119  0.1194E+00  0.3822E+02
     28.292  0.8947E-04  0.3822E+02
     28.465  0.1041E-06  0.3822E+02
     28.639  0.5708E-02  0.3822E+02
     28.812  0.1246E+01  0.3844E+02
     28.985  0.2950E+01  0.3895E+02
     29.159  0.2677E+00  0.3899E+02
     29.332  0.3793E+00  0.3906E+02
     29.505  0.4478E-01  0.3907E+02
     29.679  0.1318E+01  0.3930E+02
     29.852  0.3775E+01  0.3995E+02
     30.025  0.3076E+01  0.4048E+02
     30.199  0.2336E+01  0.4089E+02
     30.372  0.1188E+01  0.4109E+02
     30.546  0.1924E+00  0.4113E+02
     30.719  0.1072E+01  0.4131E+02
     30.892  0.1184E+01  0.4152E+02
     31.066  0.1182E+01  0.4172E+02
     31.239  0.3878E+01  0.4240E+02
     31.412  0.2337E+01  0.4280E+02
     31.586  0.2600E+01  0.4325E+02
     31.759  0.3380E+01  0.4384E+02
     31.932  0.7469E+00  0.4397E+02
     32.106  0.1049E-01  0.4397E+02
     32.279  0.2633E-01  0.4397E+02
     32.452  0.1362E+01  0.4421E+02
     32.626  0.1840E+01  0.4453E+02
     32.799  0.3086E+01  0.4506E+02
     32.972  0.1711E+01  0.4536E+02
     33.146  0.1610E+01  0.4564E+02
     33.319  0.8302E+00  0.4578E+02
     33.493  0.4080E+01  0.4649E+02
     33.666  0.3155E+01  0.4704E+02
     33.839  0.4078E+01  0.4774E+02
     34.013  0.3043E+01  0.4827E+02
     34.186  0.9902E+00  0.4844E+02
     34.359  0.4897E+00  0.4853E+02
     34.533  0.1818E-01  0.4853E+02
     34.706  0.4136E-05  0.4853E+02
     34.879  0.1219E-01  0.4853E+02
     35.053  0.1721E+01  0.4883E+02
     35.226  0.4357E+01  0.4959E+02
     35.399  0.9949E+01  0.5131E+02
     35.573  0.5775E+01  0.5231E+02
     35.746  0.1270E+01  0.5253E+02
     35.919  0.1842E+01  0.5285E+02
     36.093  0.1306E+00  0.5288E+02
     36.266  0.1685E+00  0.5290E+02
     36.440  0.2264E+01  0.5330E+02
     36.613  0.8086E+00  0.5344E+02
     36.786  0.4894E-01  0.5345E+02
     36.960  0.5626E+00  0.5354E+02
     37.133  0.2365E+01  0.5395E+02
     37.306  0.4096E+01  0.5466E+02
     37.480  0.1420E+00  0.5469E+02
     37.653  0.3821E-01  0.5469E+02
     37.826  0.1669E+01  0.5498E+02
     38.000  0.1167E+01  0.5519E+02
     38.173  0.1051E-01  0.5519E+02
     38.346  0.4016E-01  0.5519E+02
     38.520  0.5403E+00  0.5529E+02
     38.693  0.1402E+00  0.5531E+02
     38.866  0.3346E-03  0.5531E+02
     39.040  0.2979E-08  0.5531E+02
     39.213  0.7895E-09  0.5531E+02
     39.387  0.1941E-03  0.5531E+02
     39.560  0.1681E+00  0.5534E+02
     39.733  0.1124E+01  0.5554E+02
     39.907  0.1502E+00  0.5556E+02
     40.080  0.2198E+00  0.5560E+02
     40.253  0.8048E+00  0.5574E+02
     40.427  0.5656E-01  0.5575E+02
     40.600  0.7323E-04  0.5575E+02
     40.773  0.7703E-01  0.5576E+02
     40.947  0.8292E+00  0.5591E+02
     41.120  0.2423E+00  0.5595E+02
     41.293  0.2722E+00  0.5600E+02
     41.467  0.2137E-01  0.5600E+02
     41.640  0.1084E-04  0.5600E+02
     41.813  0.1841E-10  0.5600E+02
     41.987  0.0000E+00  0.5600E+02
     42.160  0.0000E+00  0.5600E+02
     42.334  0.0000E+00  0.5600E+02
     42.507  0.0000E+00  0.5600E+02
     42.680  0.0000E+00  0.5600E+02
     42.854  0.0000E+00  0.5600E+02
     43.027  0.0000E+00  0.5600E+02
     43.200  0.0000E+00  0.5600E+02
     43.374  0.0000E+00  0.5600E+02
     43.547  0.0000E+00  0.5600E+02
