    2    2    1    1
  0.2001288E+02  0.3839590E-09  0.3839590E-09  0.3839590E-09  0.5000000E-15
  1.000000000000000E-004
  CAR 
 fcc Si                                  
      8      8     28
 
  0.0000000E+00  0.0000000E+00  0.0000000E+00  0.1562500E-01
    1       -6.094940   1.000000
    2        5.885430   0.999999
    3        5.885448   0.999999
    4        5.885448   0.999999
    5        8.435016   0.000000
    6        8.435034   0.000000
    7        8.435034   0.000000
    8        9.255820   0.000000
    9       13.649694   0.000000
   10       13.649694   0.000000
   11       13.835604   0.000000
   12       17.131432   0.000000
   13       17.131442   0.000000
   14       17.131442   0.000000
   15       21.285796   0.000000
   16       29.203222   0.000000
   17       29.203260   0.000000
   18       29.203260   0.000000
   19       30.368359   0.000000
   20       30.368359   0.000000
   21       31.782846   0.000000
   22       31.782904   0.000000
   23       31.782904   0.000000
   24       35.108878   0.000000
   25       35.108878   0.000000
   26       35.108949   0.000000
   27       41.183021   0.000000
   28       41.183099   0.000000
 
  0.2500000E+00  0.0000000E+00  0.0000000E+00  0.1250000E+00
    1       -5.294248   1.000000
    2        1.946295   1.000000
    3        5.118729   1.000000
    4        5.118746   1.000000
    5        7.912953   0.000000
    6        9.383187   0.000000
    7        9.383213   0.000000
    8       12.812005   0.000000
    9       13.098905   0.000000
   10       13.098937   0.000000
   11       14.872704   0.000000
   12       17.738990   0.000000
   13       20.580203   0.000000
   14       20.580222   0.000000
   15       23.805710   0.000000
   16       23.805789   0.000000
   17       23.985871   0.000000
   18       25.978623   0.000000
   19       30.171350   0.000000
   20       30.171630   0.000000
   21       32.674693   0.000000
   22       32.674715   0.000000
   23       34.013262   0.000000
   24       35.547608   0.000000
   25       35.814602   0.000000
   26       37.809865   0.000000
   27       37.809982   0.000000
   28       39.644157   0.000000
 
  0.5000000E+00  0.0000000E+00  0.0000000E+00  0.6250000E-01
    1       -3.758911   1.000000
    2       -1.103363   1.000000
    3        4.678241   1.000000
    4        4.678258   1.000000
    5        7.421824   0.000000
    6        9.218145   0.000000
    7        9.218176   0.000000
    8       13.599143   0.000000
    9       16.526121   0.000000
   10       16.526198   0.000000
   11       17.245690   0.000000
   12       17.245707   0.000000
   13       17.261151   0.000000
   14       18.909857   0.000000
   15       25.405242   0.000000
   16       25.894654   0.000000
   17       27.623745   0.000000
   18       27.623844   0.000000
   19       27.847142   0.000000
   20       27.847297   0.000000
   21       31.709204   0.000000
   22       32.436025   0.000000
   23       32.436202   0.000000
   24       33.515475   0.000000
   25       33.515529   0.000000
   26       34.220966   0.000000
   27       36.894736   0.000000
   28       38.458967   0.000000
 
  0.2500000E+00  0.2500000E+00  0.0000000E+00  0.9375000E-01
    1       -5.011668   1.000000
    2        2.363143   1.000000
    3        3.982446   1.000000
    4        3.982457   1.000000
    5        7.002846   0.000000
    6        9.013550   0.000000
    7       11.650939   0.000000
    8       11.650954   0.000000
    9       13.968713   0.000000
   10       14.858766   0.000000
   11       17.319109   0.000000
   12       18.931149   0.000000
   13       18.931157   0.000000
   14       19.646347   0.000000
   15       23.363846   0.000000
   16       23.363859   0.000000
   17       24.339585   0.000000
   18       26.345688   0.000000
   19       26.951690   0.000000
   20       30.978075   0.000000
   21       32.453640   0.000000
   22       33.365149   0.000000
   23       33.365208   0.000000
   24       35.463019   0.000000
   25       35.463048   0.000000
   26       35.785087   0.000000
   27       36.353477   0.000000
   28       40.877048   0.000000
 
  0.5000000E+00  0.2500000E+00  0.0000000E+00  0.3750000E+00
    1       -3.372768   1.000000
    2       -0.510379   1.000000
    3        2.333491   1.000000
    4        3.666183   1.000000
    5        7.397215   0.000000
    6       10.335317   0.000000
    7       11.639157   0.000000
    8       11.808848   0.000000
    9       16.120354   0.000000
   10       16.476237   0.000000
   11       18.102920   0.000000
   12       18.623165   0.000000
   13       18.933878   0.000000
   14       22.797967   0.000000
   15       23.708195   0.000000
   16       24.619550   0.000000
   17       25.297403   0.000000
   18       25.585106   0.000000
   19       25.913619   0.000000
   20       28.851283   0.000000
   21       29.822178   0.000000
   22       31.167627   0.000000
   23       31.574018   0.000000
   24       33.783437   0.000000
   25       35.075705   0.000000
   26       35.344550   0.000000
   27       35.348213   0.000000
   28       37.152223   0.000000
 
 -0.2500000E+00  0.2500000E+00  0.0000000E+00  0.1875000E+00
    1       -4.048207   1.000000
    2        0.394450   1.000000
    3        2.113275   1.000000
    4        4.547282   1.000000
    5        8.329520   0.000000
    6       10.666474   0.000000
    7       11.039810   0.000000
    8       12.031224   0.000000
    9       12.356465   0.000000
   10       15.540685   0.000000
   11       18.537978   0.000000
   12       19.142902   0.000000
   13       19.354886   0.000000
   14       22.598219   0.000000
   15       23.094826   0.000000
   16       23.437583   0.000000
   17       24.674898   0.000000
   18       27.303694   0.000000
   19       27.631224   0.000000
   20       29.974102   0.000000
   21       30.718594   0.000000
   22       31.298097   0.000000
   23       32.804368   0.000000
   24       33.027403   0.000000
   25       33.871106   0.000000
   26       35.247568   0.000000
   27       36.406400   0.000000
   28       37.179383   0.000000
 
  0.5000000E+00  0.5000000E+00  0.0000000E+00  0.4687500E-01
    1       -1.944804   1.000000
    2       -1.944803   1.000000
    3        3.016572   1.000000
    4        3.016581   1.000000
    5        6.586033   0.000000
    6        6.586051   0.000000
    7       16.001941   0.000000
    8       16.001957   0.000000
    9       16.960365   0.000000
   10       16.960371   0.000000
   11       18.483369   0.000000
   12       18.483369   0.000000
   13       18.956382   0.000000
   14       18.956394   0.000000
   15       24.852864   0.000000
   16       24.852909   0.000000
   17       25.659075   0.000000
   18       25.659081   0.000000
   19       26.111280   0.000000
   20       26.111285   0.000000
   21       27.423310   0.000000
   22       27.423333   0.000000
   23       31.700867   0.000000
   24       31.701094   0.000000
   25       35.461487   0.000000
   26       35.461552   0.000000
   27       40.138525   0.000000
   28       40.138570   0.000000
 
 -0.2500000E+00  0.5000000E+00  0.2500000E+00  0.9375000E-01
    1       -1.779851   1.000000
    2       -1.779848   1.000000
    3        2.011745   1.000000
    4        2.011754   1.000000
    5       10.158896   0.000000
    6       10.158931   0.000000
    7       10.882297   0.000000
    8       10.882314   0.000000
    9       16.504569   0.000000
   10       16.504572   0.000000
   11       18.953408   0.000000
   12       18.953428   0.000000
   13       22.379343   0.000000
   14       22.379366   0.000000
   15       24.475989   0.000000
   16       24.476006   0.000000
   17       24.927485   0.000000
   18       24.927570   0.000000
   19       25.851612   0.000000
   20       25.851639   0.000000
   21       29.664674   0.000000
   22       29.664766   0.000000
   23       33.419471   0.000000
   24       33.419510   0.000000
   25       33.562305   0.000000
   26       33.562331   0.000000
   27       35.340898   0.000000
   28       35.340905   0.000000
