       N       E                     dE             d eps       ncg     rms          rms(c)
DAV:   1    -0.923063429919E+01   -0.92306E+01   -0.23623E+03   532   0.124E+02
DAV:   2    -0.108343067609E+02   -0.16037E+01   -0.16037E+01   728   0.105E+01
DAV:   3    -0.108354475824E+02   -0.11408E-02   -0.11408E-02   504   0.272E-01
DAV:   4    -0.108354480087E+02   -0.42630E-06   -0.42630E-06   784   0.453E-03
DAV:   5    -0.108354480088E+02   -0.14211E-11   -0.11859E-11   476   0.793E-06    0.314E+00
DAV:   6    -0.106952223694E+02    0.14023E+00   -0.90366E-02   532   0.451E-01    0.186E+00
DAV:   7    -0.106318863148E+02    0.63336E-01   -0.16607E-01   532   0.654E-01    0.163E-01
DAV:   8    -0.106336255609E+02   -0.17392E-02   -0.30662E-03   476   0.118E-01    0.261E-02
DAV:   9    -0.106337560427E+02   -0.13048E-03   -0.10690E-04   700   0.230E-02    0.135E-02
DAV:  10    -0.106337773801E+02   -0.21337E-04   -0.32107E-05   504   0.124E-02
   1 F= -.10633777E+02 E0= -.10633777E+02  d E =-.349727E-07
