 vasp.5.4.4.18Apr17-6-g9f103f2a35 (build Apr 19 2022 13:31:49) complex          
  
 executed on             LinuxIFC date 2023.12.25  02:10:29
 running on   28 total cores
 distrk:  each k-point on   28 cores,    1 groups
 distr:  one band on NCORES_PER_BAND=   1 cores,   28 groups


--------------------------------------------------------------------------------------------------------


 INCAR:
 POTCAR:   PAW_PBE Si 05Jan2001                   

 ----------------------------------------------------------------------------- 
|                                                                             |
|           W    W    AA    RRRRR   N    N  II  N    N   GGGG   !!!           |
|           W    W   A  A   R    R  NN   N  II  NN   N  G    G  !!!           |
|           W    W  A    A  R    R  N N  N  II  N N  N  G       !!!           |
|           W WW W  AAAAAA  RRRRR   N  N N  II  N  N N  G  GGG   !            |
|           WW  WW  A    A  R   R   N   NN  II  N   NN  G    G                |
|           W    W  A    A  R    R  N    N  II  N    N   GGGG   !!!           |
|                                                                             |
|      For optimal performance we recommend to set                            |
|        NCORE= 4 - approx SQRT( number of cores)                             |
|      NCORE specifies how many cores store one orbital (NPAR=cpu/NCORE).     |
|      This setting can  greatly improve the performance of VASP for DFT.     |
|      The default,   NCORE=1            might be grossly inefficient         |
|      on modern multi-core architectures or massively parallel machines.     |
|      Do your own testing !!!!                                               |
|      Unfortunately you need to use the default for GW and RPA calculations. |
|      (for HF NCORE is supported but not extensively tested yet)             |
|                                                                             |
 ----------------------------------------------------------------------------- 

 POTCAR:   PAW_PBE Si 05Jan2001                   
   VRHFIN =Si: s2p2                                                             
   LEXCH  = PE                                                                  
   EATOM  =   103.0669 eV,    7.5752 Ry                                         
                                                                                
   TITEL  = PAW_PBE Si 05Jan2001                                                
   LULTRA =        F    use ultrasoft PP ?                                      
   IUNSCR =        1    unscreen: 0-lin 1-nonlin 2-no                           
   RPACOR =    1.500    partial core radius                                     
   POMASS =   28.085; ZVAL   =    4.000    mass and valenz                      
   RCORE  =    1.900    outmost cutoff radius                                   
   RWIGS  =    2.480; RWIGS  =    1.312    wigner-seitz radius (au A)           
   ENMAX  =  245.345; ENMIN  =  184.009 eV                                      
   ICORE  =        2    local potential                                         
   LCOR   =        T    correct aug charges                                     
   LPAW   =        T    paw PP                                                  
   EAUG   =  322.069                                                            
   DEXC   =    -.007                                                            
   RMAX   =    2.944    core radius for proj-oper                               
   RAUG   =    1.300    factor for augmentation sphere                          
   RDEP   =    1.993    radius for radial grids                                 
   QCUT   =   -4.246; QGAM   =    8.493    optimization parameters              
                                                                                
   Description                                                                  
     l     E      TYP  RCUT    TYP  RCUT                                        
     0   .000     23  1.900                                                     
     0   .000     23  1.900                                                     
     1   .000     23  1.900                                                     
     1   .000     23  1.900                                                     
     2   .000      7  1.900                                                     
  local pseudopotential read in
  partial core-charges read in
  atomic valenz-charges read in
  non local Contribution for L=           0  read in
    real space projection operators read in
  non local Contribution for L=           0  read in
    real space projection operators read in
  non local Contribution for L=           1  read in
    real space projection operators read in
  non local Contribution for L=           1  read in
    real space projection operators read in
    PAW grid and wavefunctions read in
 
   number of l-projection  operators is LMAX  =           4
   number of lm-projection operators is LMMAX =           8
 
 PAW_PBE Si 05Jan2001                   :
 energy of atom  1       EATOM= -103.0669
 kinetic energy error for atom=    0.0056 (will be added to EATOM!!)
 
 
 POSCAR: system Si                               
  positions in cartesian coordinates
  No initial velocities read in
 exchange correlation table for  LEXCH =        8
   RHO(1)=    0.500       N(1)  =     2000
   RHO(2)=  100.500       N(2)  =     4000
 


--------------------------------------------------------------------------------------------------------


 ion  position               nearest neighbor table
   1  0.000  0.000  0.000-   2 2.35   2 2.35   2 2.35   2 2.35
   2  0.250  0.250  0.250-   1 2.35   1 2.35   1 2.35   1 2.35
 
  LATTYP: Found a face centered cubic cell.
 ALAT       =     5.4300000000
  
  Lattice vectors:
  
 A1 = (   2.7150000000,   2.7150000000,   0.0000000000)
 A2 = (   0.0000000000,   2.7150000000,   2.7150000000)
 A3 = (   2.7150000000,   0.0000000000,   2.7150000000)


Analysis of symmetry for initial positions (statically):
=====================================================================
 Subroutine PRICEL returns:
 Original cell was already a primitive cell.
 

 Routine SETGRP: Setting up the symmetry group for a 
 face centered cubic supercell.


 Subroutine GETGRP returns: Found 48 space group operations
 (whereof 24 operations were pure point group operations)
 out of a pool of 48 trial point group operations.


The static configuration has the point symmetry T_d .
 The point group associated with its full space group is O_h .


Analysis of symmetry for dynamics (positions and initial velocities):
=====================================================================
 Subroutine PRICEL returns:
 Original cell was already a primitive cell.
 

 Routine SETGRP: Setting up the symmetry group for a 
 face centered cubic supercell.


 Subroutine GETGRP returns: Found 48 space group operations
 (whereof 24 operations were pure point group operations)
 out of a pool of 48 trial point group operations.


The dynamic configuration has the point symmetry T_d .
 The point group associated with its full space group is O_h .


 Subroutine INISYM returns: Found 48 space group operations
 (whereof 24 operations are pure point group operations),
 and found     1 'primitive' translations

 
 
 KPOINTS: 4x4x4                                   

Automatic generation of k-mesh.
Space group operators:
 irot       det(A)        alpha          n_x          n_y          n_z        tau_x        tau_y        tau_z
    1     1.000000     0.000001     1.000000     0.000000     0.000000     0.000000     0.000000     0.000000
    2     1.000000   120.000000    -0.577350    -0.577350    -0.577350     0.000000     0.000000     0.000000
    3     1.000000   120.000000     0.577350     0.577350     0.577350     0.000000     0.000000     0.000000
    4    -1.000000    90.000000     0.000000    -1.000000     0.000000     0.000000     0.000000     0.000000
    5    -1.000000   180.000000     0.707107     0.707107     0.000000     0.000000     0.000000     0.000000
    6    -1.000000    90.000000     1.000000     0.000000     0.000000     0.000000     0.000000     0.000000
    7     1.000000   180.000000     0.000000     1.000000     0.000000     0.000000     0.000000     0.000000
    8     1.000000   120.000000     0.577350     0.577350    -0.577350     0.000000     0.000000     0.000000
    9     1.000000   120.000000     0.577350    -0.577350    -0.577350     0.000000     0.000000     0.000000
   10    -1.000000    90.000000     0.000000     1.000000     0.000000     0.000000     0.000000     0.000000
   11    -1.000000    90.000000     0.000000     0.000000    -1.000000     0.000000     0.000000     0.000000
   12    -1.000000   180.000000     0.000000     0.707107     0.707107     0.000000     0.000000     0.000000
   13     1.000000   120.000000    -0.577350     0.577350     0.577350     0.000000     0.000000     0.000000
   14     1.000000   120.000000    -0.577350     0.577350    -0.577350     0.000000     0.000000     0.000000
   15     1.000000   180.000000     0.000000     0.000000     1.000000     0.000000     0.000000     0.000000
   16    -1.000000    90.000000    -1.000000     0.000000     0.000000     0.000000     0.000000     0.000000
   17    -1.000000   180.000000     0.707107     0.000000     0.707107     0.000000     0.000000     0.000000
   18    -1.000000    90.000000     0.000000     0.000000     1.000000     0.000000     0.000000     0.000000
   19     1.000000   120.000000    -0.577350    -0.577350     0.577350     0.000000     0.000000     0.000000
   20     1.000000   180.000000     1.000000     0.000000     0.000000     0.000000     0.000000     0.000000
   21     1.000000   120.000000     0.577350    -0.577350     0.577350     0.000000     0.000000     0.000000
   22    -1.000000   180.000000     0.707107    -0.707107     0.000000     0.000000     0.000000     0.000000
   23    -1.000000   180.000000     0.707107     0.000000    -0.707107     0.000000     0.000000     0.000000
   24    -1.000000   180.000000     0.000000    -0.707107     0.707107     0.000000     0.000000     0.000000
   25    -1.000000     0.000001     1.000000     0.000000     0.000000     0.250000     0.250000     0.250000
   26    -1.000000   120.000000    -0.577350    -0.577350    -0.577350     0.250000     0.250000     0.250000
   27    -1.000000   120.000000     0.577350     0.577350     0.577350     0.250000     0.250000     0.250000
   28     1.000000    90.000000     0.000000    -1.000000     0.000000     0.250000     0.250000     0.250000
   29     1.000000   180.000000     0.707107     0.707107     0.000000     0.250000     0.250000     0.250000
   30     1.000000    90.000000     1.000000     0.000000     0.000000     0.250000     0.250000     0.250000
   31    -1.000000   180.000000     0.000000     1.000000     0.000000     0.250000     0.250000     0.250000
   32    -1.000000   120.000000     0.577350     0.577350    -0.577350     0.250000     0.250000     0.250000
   33    -1.000000   120.000000     0.577350    -0.577350    -0.577350     0.250000     0.250000     0.250000
   34     1.000000    90.000000     0.000000     1.000000     0.000000     0.250000     0.250000     0.250000
   35     1.000000    90.000000     0.000000     0.000000    -1.000000     0.250000     0.250000     0.250000
   36     1.000000   180.000000     0.000000     0.707107     0.707107     0.250000     0.250000     0.250000
   37    -1.000000   120.000000    -0.577350     0.577350     0.577350     0.250000     0.250000     0.250000
   38    -1.000000   120.000000    -0.577350     0.577350    -0.577350     0.250000     0.250000     0.250000
   39    -1.000000   180.000000     0.000000     0.000000     1.000000     0.250000     0.250000     0.250000
   40     1.000000    90.000000    -1.000000     0.000000     0.000000     0.250000     0.250000     0.250000
   41     1.000000   180.000000     0.707107     0.000000     0.707107     0.250000     0.250000     0.250000
   42     1.000000    90.000000     0.000000     0.000000     1.000000     0.250000     0.250000     0.250000
   43    -1.000000   120.000000    -0.577350    -0.577350     0.577350     0.250000     0.250000     0.250000
   44    -1.000000   180.000000     1.000000     0.000000     0.000000     0.250000     0.250000     0.250000
   45    -1.000000   120.000000     0.577350    -0.577350     0.577350     0.250000     0.250000     0.250000
   46     1.000000   180.000000     0.707107    -0.707107     0.000000     0.250000     0.250000     0.250000
   47     1.000000   180.000000     0.707107     0.000000    -0.707107     0.250000     0.250000     0.250000
   48     1.000000   180.000000     0.000000    -0.707107     0.707107     0.250000     0.250000     0.250000
 
 Subroutine IBZKPT returns following result:
 ===========================================
 
 Found      8 irreducible k-points:
 
 Following reciprocal coordinates:
            Coordinates               Weight
  0.000000  0.000000  0.000000      1.000000
  0.250000  0.000000  0.000000      8.000000
  0.500000  0.000000  0.000000      4.000000
  0.250000  0.250000  0.000000      6.000000
  0.500000  0.250000  0.000000     24.000000
 -0.250000  0.250000  0.000000     12.000000
  0.500000  0.500000  0.000000      3.000000
 -0.250000  0.500000  0.250000      6.000000
 
 Following cartesian coordinates:
            Coordinates               Weight
  0.000000  0.000000  0.000000      1.000000
  0.250000  0.250000 -0.250000      8.000000
  0.500000  0.500000 -0.500000      4.000000
  0.000000  0.500000  0.000000      6.000000
  0.250000  0.750000 -0.250000     24.000000
 -0.500000  0.000000  0.500000     12.000000
  0.000000  1.000000  0.000000      3.000000
 -0.500000  0.000000  1.000000      6.000000
 


--------------------------------------------------------------------------------------------------------




 Dimension of arrays:
   k-points           NKPTS =      8   k-points in BZ     NKDIM =      8   number of bands    NBANDS=     28
   number of dos      NEDOS =    301   number of ions     NIONS =      2
   non local maximal  LDIM  =      4   non local SUM 2l+1 LMDIM =      8
   total plane-waves  NPLWV =   4096
   max r-space proj   IRMAX =      1   max aug-charges    IRDMAX=   3621
   dimension x,y,z NGX =    16 NGY =   16 NGZ =   16
   dimension x,y,z NGXF=    32 NGYF=   32 NGZF=   32
   support grid    NGXF=    32 NGYF=   32 NGZF=   32
   ions per type =               2
   NGX,Y,Z   is equivalent  to a cutoff of   6.93,  6.93,  6.93 a.u.
   NGXF,Y,Z  is equivalent  to a cutoff of  13.86, 13.86, 13.86 a.u.

 SYSTEM =  fcc Si                                  
 POSCAR =  system Si                               

 Startparameter for this run:
   NWRITE =      2    write-flag & timer
   PREC   = normal    normal or accurate (medium, high low for compatibility)
   ISTART =      0    job   : 0-new  1-cont  2-samecut
   ICHARG =      2    charge: 1-file 2-atom 10-const
   ISPIN  =      1    spin polarized calculation?
   LNONCOLLINEAR =      F non collinear calculations
   LSORBIT =      F    spin-orbit coupling
   INIWAV =      1    electr: 0-lowe 1-rand  2-diag
   LASPH  =      F    aspherical Exc in radial PAW
   METAGGA=      F    non-selfconsistent MetaGGA calc.

 Electronic Relaxation 1
   ENCUT  =  245.3 eV  18.03 Ry    4.25 a.u.   4.90  4.90  4.90*2*pi/ulx,y,z
   ENINI  =  245.3     initial cutoff
   ENAUG  =  322.1 eV  augmentation charge cutoff
   NELM   =     60;   NELMIN=  2; NELMDL= -5     # of ELM steps 
   EDIFF  = 0.1E-03   stopping-criterion for ELM
   LREAL  =      F    real-space projection
   NLSPLINE    = F    spline interpolate recip. space projectors
   LCOMPAT=      F    compatible to vasp.4.4
   GGA_COMPAT  = T    GGA compatible to vasp.4.4-vasp.4.6
   LMAXPAW     = -100 max onsite density
   LMAXMIX     =    2 max onsite mixed and CHGCAR
   VOSKOWN=      0    Vosko Wilk Nusair interpolation
   ROPT   =    0.00000
 Ionic relaxation
   EDIFFG = 0.1E-02   stopping-criterion for IOM
   NSW    =      0    number of steps for IOM
   NBLOCK =      1;   KBLOCK =      1    inner block; outer block 
   IBRION =     -1    ionic relax: 0-MD 1-quasi-New 2-CG
   NFREE  =      0    steps in history (QN), initial steepest desc. (CG)
   ISIF   =      2    stress and relaxation
   IWAVPR =     10    prediction:  0-non 1-charg 2-wave 3-comb
   ISYM   =      2    0-nonsym 1-usesym 2-fastsym
   LCORR  =      T    Harris-Foulkes like correction to forces

   POTIM  = 0.5000    time-step for ionic-motion
   TEIN   =    0.0    initial temperature
   TEBEG  =    0.0;   TEEND  =   0.0 temperature during run
   SMASS  =  -3.00    Nose mass-parameter (am)
   estimated Nose-frequenzy (Omega)   =  0.10E-29 period in steps =****** mass=  -0.337E-27a.u.
   SCALEE = 1.0000    scale energy and forces
   NPACO  =    256;   APACO  = 16.0  distance and # of slots for P.C.
   PSTRESS=    0.0 pullay stress

  Mass of Ions in am
   POMASS =  28.09
  Ionic Valenz
   ZVAL   =   4.00
  Atomic Wigner-Seitz radii
   RWIGS  =  -1.00
  virtual crystal weights 
   VCA    =   1.00
   NELECT =       8.0000    total number of electrons
   NUPDOWN=      -1.0000    fix difference up-down

 DOS related values:
   EMIN   =  10.00;   EMAX   =-10.00  energy-range for DOS
   EFERMI =   0.00
   ISMEAR =     0;   SIGMA  =   0.10  broadening in eV -4-tet -1-fermi 0-gaus

 Electronic relaxation 2 (details)
   IALGO  =     38    algorithm
   LDIAG  =      T    sub-space diagonalisation (order eigenvalues)
   LSUBROT=      F    optimize rotation matrix (better conditioning)
   TURBO    =      0    0=normal 1=particle mesh
   IRESTART =      0    0=no restart 2=restart with 2 vectors
   NREBOOT  =      0    no. of reboots
   NMIN     =      0    reboot dimension
   EREF     =   0.00    reference energy to select bands
   IMIX   =      4    mixing-type and parameters
     AMIX     =   0.40;   BMIX     =  1.00
     AMIX_MAG =   1.60;   BMIX_MAG =  1.00
     AMIN     =   0.10
     WC   =   100.;   INIMIX=   1;  MIXPRE=   1;  MAXMIX= -45

 Intra band minimization:
   WEIMIN = 0.0000     energy-eigenvalue tresh-hold
   EBREAK =  0.89E-06  absolut break condition
   DEPER  =   0.30     relativ break condition  

   TIME   =   0.40     timestep for ELM

  volume/ion in A,a.u.               =      20.01       135.05
  Fermi-wavevector in a.u.,A,eV,Ry     =   0.957176  1.808800 12.465458  0.916185
  Thomas-Fermi vector in A             =   2.086170
 
 Write flags
   LWAVE        =      T    write WAVECAR
   LDOWNSAMPLE  =      F    k-point downsampling of WAVECAR
   LCHARG       =      T    write CHGCAR
   LVTOT        =      F    write LOCPOT, total local potential
   LVHAR        =      F    write LOCPOT, Hartree potential only
   LELF         =      F    write electronic localiz. function (ELF)
   LORBIT       =      0    0 simple, 1 ext, 2 COOP (PROOUT), +10 PAW based schemes


 Dipole corrections
   LMONO  =      F    monopole corrections only (constant potential shift)
   LDIPOL =      F    correct potential (dipole corrections)
   IDIPOL =      0    1-x, 2-y, 3-z, 4-all directions 
   EPSILON=  1.0000000 bulk dielectric constant

 Exchange correlation treatment:
   GGA     =    --    GGA type
   LEXCH   =     8    internal setting for exchange type
   VOSKOWN=      0    Vosko Wilk Nusair interpolation
   LHFCALC =     F    Hartree Fock is set to
   LHFONE  =     F    Hartree Fock one center treatment
   AEXX    =    0.0000 exact exchange contribution

 Linear response parameters
   LEPSILON=     F    determine dielectric tensor
   LRPA    =     F    only Hartree local field effects (RPA)
   LNABLA  =     F    use nabla operator in PAW spheres
   LVEL    =     F    velocity operator in full k-point grid
   LINTERFAST=   F  fast interpolation
   KINTER  =     0    interpolate to denser k-point grid
   CSHIFT  =0.1000    complex shift for real part using Kramers Kronig
   OMEGAMAX=  -1.0    maximum frequency
   DEG_THRESHOLD= 0.2000000E-02 threshold for treating states as degnerate
   RTIME   =   -0.100 relaxation time in fs
  (WPLASMAI=    0.000 imaginary part of plasma frequency in eV, 0.658/RTIME)
   DFIELD  = 0.0000000 0.0000000 0.0000000 field for delta impulse in time
 
 Orbital magnetization related:
   ORBITALMAG=     F  switch on orbital magnetization
   LCHIMAG   =     F  perturbation theory with respect to B field
   DQ        =  0.001000  dq finite difference perturbation B field
   LLRAUG    =     F  two centre corrections for induced B field



--------------------------------------------------------------------------------------------------------


 Static calculation
 charge density and potential will be updated during run
 non-spin polarized calculation
 Variant of blocked Davidson
 Davidson routine will perform the subspace rotation
 perform sub-space diagonalisation
    after iterative eigenvector-optimisation
 modified Broyden-mixing scheme, WC =      100.0
 initial mixing is a Kerker type mixing with AMIX =  0.4000 and BMIX =      1.0000
 Hartree-type preconditioning will be used
 using additional bands           24
 reciprocal scheme for non local part
 use partial core corrections
 calculate Harris-corrections to forces 
   (improved forces if not selfconsistent)
 use gradient corrections 
 use of overlap-Matrix (Vanderbilt PP)
 Gauss-broadening in eV      SIGMA  =   0.10


--------------------------------------------------------------------------------------------------------


  energy-cutoff  :      245.34
  volume of cell :       40.03
      direct lattice vectors                 reciprocal lattice vectors
     2.715000000  2.715000000  0.000000000     0.184162063  0.184162063 -0.184162063
     0.000000000  2.715000000  2.715000000    -0.184162063  0.184162063  0.184162063
     2.715000000  0.000000000  2.715000000     0.184162063 -0.184162063  0.184162063

  length of vectors
     3.839589822  3.839589822  3.839589822     0.318978049  0.318978049  0.318978049


 
 k-points in units of 2pi/SCALE and weight: 4x4x4                                   
   0.00000000  0.00000000  0.00000000       0.016
   0.25000000  0.25000000 -0.25000000       0.125
   0.50000000  0.50000000 -0.50000000       0.062
   0.00000000  0.50000000  0.00000000       0.094
   0.25000000  0.75000000 -0.25000000       0.375
  -0.50000000  0.00000000  0.50000000       0.188
   0.00000000  1.00000000  0.00000000       0.047
  -0.50000000  0.00000000  1.00000000       0.094
 
 k-points in reciprocal lattice and weights: 4x4x4                                   
   0.00000000  0.00000000  0.00000000       0.016
   0.25000000  0.00000000  0.00000000       0.125
   0.50000000  0.00000000  0.00000000       0.062
   0.25000000  0.25000000  0.00000000       0.094
   0.50000000  0.25000000  0.00000000       0.375
  -0.25000000  0.25000000  0.00000000       0.188
   0.50000000  0.50000000  0.00000000       0.047
  -0.25000000  0.50000000  0.25000000       0.094
 
 position of ions in fractional coordinates (direct lattice) 
   0.00000000  0.00000000  0.00000000
   0.25000000  0.25000000  0.25000000
 
 position of ions in cartesian coordinates  (Angst):
   0.00000000  0.00000000  0.00000000
   1.35750000  1.35750000  1.35750000
 


--------------------------------------------------------------------------------------------------------


 k-point  1 :   0.0000 0.0000 0.0000  plane waves:     339
 k-point  2 :   0.2500 0.0000 0.0000  plane waves:     350
 k-point  3 :   0.5000 0.0000 0.0000  plane waves:     344
 k-point  4 :   0.2500 0.2500 0.0000  plane waves:     343
 k-point  5 :   0.5000 0.2500 0.0000  plane waves:     348
 k-point  6 :  -0.2500 0.2500 0.0000  plane waves:     343
 k-point  7 :   0.5000 0.5000 0.0000  plane waves:     342
 k-point  8 :  -0.2500 0.5000 0.2500  plane waves:     360

 maximum and minimum number of plane-waves per node :       360      339

 maximum number of plane-waves:       360
 maximum index in each direction: 
   IXMAX=    5   IYMAX=    4   IZMAX=    4
   IXMIN=   -5   IYMIN=   -5   IZMIN=   -5


 serial   3D FFT for wavefunctions
 parallel 3D FFT for charge:
    minimum data exchange during FFTs selected (reduces bandwidth)


 total amount of memory used by VASP MPI-rank0    30610. kBytes
=======================================================================

   base      :      30000. kBytes
   nonl-proj :        198. kBytes
   fftplans  :         86. kBytes
   grid      :        270. kBytes
   one-center:          6. kBytes
   wavefun   :         50. kBytes
 
     INWAV:  cpu time    0.0000: real time    0.0001
 Broyden mixing: mesh for mixing (old mesh)
   NGX =  9   NGY =  9   NGZ =  9
  (NGX  = 32   NGY  = 32   NGZ  = 32)
  gives a total of    729 points

 initial charge density was supplied:
 charge density of overlapping atoms calculated
 number of electron       8.0000000 magnetization 
 keeping initial charge density in first step


--------------------------------------------------------------------------------------------------------


 Maximum index for augmentation-charges          460 (set IRDMAX)


--------------------------------------------------------------------------------------------------------


 First call to EWALD:  gamma=   0.518
 Maximum number of real-space cells 3x 3x 3
 Maximum number of reciprocal cells 3x 3x 3

    FEWALD:  cpu time    0.0015: real time    0.0015


--------------------------------------- Iteration      1(   1)  ---------------------------------------


    POTLOK:  cpu time    0.0032: real time    0.0040
    SETDIJ:  cpu time    0.0012: real time    0.0011
     EDDAV:  cpu time    0.0688: real time    0.0688
       DOS:  cpu time    0.0003: real time    0.0003
    --------------------------------------------
      LOOP:  cpu time    0.0734: real time    0.0743

 eigenvalue-minimisations  :   532
 total energy-change (2. order) :-0.9230634E+01  (-0.2362263E+03)
 number of electron       8.0000000 magnetization 
 augmentation part        8.0000000 magnetization 

 Free energy of the ion-electron system (eV)
  ---------------------------------------------------
  alpha Z        PSCENC =         3.36414203
  Ewald energy   TEWEN  =      -228.56352493
  -Hartree energ DENC   =       -11.00108243
  -exchange      EXHF   =         0.00000000
  -V(xc)+E(xc)   XCENC  =       -18.60181216
  PAW double counting   =        65.95520812      -30.76852678
  entropy T*S    EENTRO =        -0.00000005
  eigenvalues    EBANDS =         4.26238959
  atomic energy  EATOM  =       206.12257231
  Solvation  Ediel_sol  =         0.00000000
  ---------------------------------------------------
  free energy    TOTEN  =        -9.23063430 eV

  energy without entropy =       -9.23063425  energy(sigma->0) =       -9.23063428


--------------------------------------------------------------------------------------------------------




--------------------------------------- Iteration      1(   2)  ---------------------------------------


     EDDAV:  cpu time    0.1091: real time    0.1093
       DOS:  cpu time    0.0001: real time    0.0001
    --------------------------------------------
      LOOP:  cpu time    0.1093: real time    0.1095

 eigenvalue-minimisations  :   728
 total energy-change (2. order) :-0.1603672E+01  (-0.1603672E+01)
 number of electron       8.0000000 magnetization 
 augmentation part        8.0000000 magnetization 

 Free energy of the ion-electron system (eV)
  ---------------------------------------------------
  alpha Z        PSCENC =         3.36414203
  Ewald energy   TEWEN  =      -228.56352493
  -Hartree energ DENC   =       -11.00108243
  -exchange      EXHF   =         0.00000000
  -V(xc)+E(xc)   XCENC  =       -18.60181216
  PAW double counting   =        65.95520812      -30.76852678
  entropy T*S    EENTRO =        -0.00000000
  eigenvalues    EBANDS =         2.65871709
  atomic energy  EATOM  =       206.12257231
  Solvation  Ediel_sol  =         0.00000000
  ---------------------------------------------------
  free energy    TOTEN  =       -10.83430676 eV

  energy without entropy =      -10.83430676  energy(sigma->0) =      -10.83430676


--------------------------------------------------------------------------------------------------------




--------------------------------------- Iteration      1(   3)  ---------------------------------------


     EDDAV:  cpu time    0.0594: real time    0.0595
       DOS:  cpu time    0.0001: real time    0.0001
    --------------------------------------------
      LOOP:  cpu time    0.0595: real time    0.0597

 eigenvalue-minimisations  :   504
 total energy-change (2. order) :-0.1140822E-02  (-0.1140822E-02)
 number of electron       8.0000000 magnetization 
 augmentation part        8.0000000 magnetization 

 Free energy of the ion-electron system (eV)
  ---------------------------------------------------
  alpha Z        PSCENC =         3.36414203
  Ewald energy   TEWEN  =      -228.56352493
  -Hartree energ DENC   =       -11.00108243
  -exchange      EXHF   =         0.00000000
  -V(xc)+E(xc)   XCENC  =       -18.60181216
  PAW double counting   =        65.95520812      -30.76852678
  entropy T*S    EENTRO =        -0.00000000
  eigenvalues    EBANDS =         2.65757627
  atomic energy  EATOM  =       206.12257231
  Solvation  Ediel_sol  =         0.00000000
  ---------------------------------------------------
  free energy    TOTEN  =       -10.83544758 eV

  energy without entropy =      -10.83544758  energy(sigma->0) =      -10.83544758


--------------------------------------------------------------------------------------------------------




--------------------------------------- Iteration      1(   4)  ---------------------------------------


     EDDAV:  cpu time    0.1247: real time    0.1249
       DOS:  cpu time    0.0001: real time    0.0001
    --------------------------------------------
      LOOP:  cpu time    0.1249: real time    0.1250

 eigenvalue-minimisations  :   784
 total energy-change (2. order) :-0.4263017E-06  (-0.4263002E-06)
 number of electron       8.0000000 magnetization 
 augmentation part        8.0000000 magnetization 

 Free energy of the ion-electron system (eV)
  ---------------------------------------------------
  alpha Z        PSCENC =         3.36414203
  Ewald energy   TEWEN  =      -228.56352493
  -Hartree energ DENC   =       -11.00108243
  -exchange      EXHF   =         0.00000000
  -V(xc)+E(xc)   XCENC  =       -18.60181216
  PAW double counting   =        65.95520812      -30.76852678
  entropy T*S    EENTRO =        -0.00000000
  eigenvalues    EBANDS =         2.65757584
  atomic energy  EATOM  =       206.12257231
  Solvation  Ediel_sol  =         0.00000000
  ---------------------------------------------------
  free energy    TOTEN  =       -10.83544801 eV

  energy without entropy =      -10.83544801  energy(sigma->0) =      -10.83544801


--------------------------------------------------------------------------------------------------------




--------------------------------------- Iteration      1(   5)  ---------------------------------------


     EDDAV:  cpu time    0.0546: real time    0.0547
       DOS:  cpu time    0.0001: real time    0.0001
    CHARGE:  cpu time    0.0018: real time    0.0018
    MIXING:  cpu time    0.0003: real time    0.0003
    --------------------------------------------
      LOOP:  cpu time    0.0568: real time    0.0569

 eigenvalue-minimisations  :   476
 total energy-change (2. order) :-0.1421085E-11  (-0.1185940E-11)
 number of electron       7.9999994 magnetization 
 augmentation part       -0.4652488 magnetization 

 Broyden mixing:
  rms(total) = 0.31372E+00    rms(broyden)= 0.31367E+00
  rms(prec ) = 0.91631E+00
  weight for this iteration     100.00

 Free energy of the ion-electron system (eV)
  ---------------------------------------------------
  alpha Z        PSCENC =         3.36414203
  Ewald energy   TEWEN  =      -228.56352493
  -Hartree energ DENC   =       -11.00108243
  -exchange      EXHF   =         0.00000000
  -V(xc)+E(xc)   XCENC  =       -18.60181216
  PAW double counting   =        65.95520812      -30.76852678
  entropy T*S    EENTRO =        -0.00000000
  eigenvalues    EBANDS =         2.65757584
  atomic energy  EATOM  =       206.12257231
  Solvation  Ediel_sol  =         0.00000000
  ---------------------------------------------------
  free energy    TOTEN  =       -10.83544801 eV

  energy without entropy =      -10.83544801  energy(sigma->0) =      -10.83544801


--------------------------------------------------------------------------------------------------------




--------------------------------------- Iteration      1(   6)  ---------------------------------------


    POTLOK:  cpu time    0.0018: real time    0.0019
    SETDIJ:  cpu time    0.0010: real time    0.0010
     EDDAV:  cpu time    0.0644: real time    0.0644
       DOS:  cpu time    0.0001: real time    0.0001
    CHARGE:  cpu time    0.0017: real time    0.0017
    MIXING:  cpu time    0.0003: real time    0.0003
    --------------------------------------------
      LOOP:  cpu time    0.0692: real time    0.0693

 eigenvalue-minimisations  :   532
 total energy-change (2. order) : 0.1402256E+00  (-0.9036647E-02)
 number of electron       7.9999994 magnetization 
 augmentation part       -0.4588459 magnetization 

 Broyden mixing:
  rms(total) = 0.18579E+00    rms(broyden)= 0.18578E+00
  rms(prec ) = 0.54021E+00
  weight for this iteration     100.00

 eigenvalues of (default mixing * dielectric matrix)
  average eigenvalue GAMMA=   2.4304
  2.4304

 Free energy of the ion-electron system (eV)
  ---------------------------------------------------
  alpha Z        PSCENC =         3.36414203
  Ewald energy   TEWEN  =      -228.56352493
  -Hartree energ DENC   =       -12.59746728
  -exchange      EXHF   =         0.00000000
  -V(xc)+E(xc)   XCENC  =       -18.34861629
  PAW double counting   =        70.34045062      -35.27156552
  entropy T*S    EENTRO =        -0.00000000
  eigenvalues    EBANDS =         4.25878669
  atomic energy  EATOM  =       206.12257231
  Solvation  Ediel_sol  =         0.00000000
  ---------------------------------------------------
  free energy    TOTEN  =       -10.69522237 eV

  energy without entropy =      -10.69522237  energy(sigma->0) =      -10.69522237


--------------------------------------------------------------------------------------------------------




--------------------------------------- Iteration      1(   7)  ---------------------------------------


    POTLOK:  cpu time    0.0018: real time    0.0019
    SETDIJ:  cpu time    0.0010: real time    0.0010
     EDDAV:  cpu time    0.0651: real time    0.0651
       DOS:  cpu time    0.0002: real time    0.0002
    CHARGE:  cpu time    0.0022: real time    0.0022
    MIXING:  cpu time    0.0003: real time    0.0003
    --------------------------------------------
      LOOP:  cpu time    0.0706: real time    0.0707

 eigenvalue-minimisations  :   532
 total energy-change (2. order) : 0.6333605E-01  (-0.1660662E-01)
 number of electron       7.9999994 magnetization 
 augmentation part       -0.4512054 magnetization 

 Broyden mixing:
  rms(total) = 0.16283E-01    rms(broyden)= 0.16282E-01
  rms(prec ) = 0.42214E-01
  weight for this iteration     100.00

 eigenvalues of (default mixing * dielectric matrix)
  average eigenvalue GAMMA=   2.4587
  2.4587  2.4587

 Free energy of the ion-electron system (eV)
  ---------------------------------------------------
  alpha Z        PSCENC =         3.36414203
  Ewald energy   TEWEN  =      -228.56352493
  -Hartree energ DENC   =       -15.19518117
  -exchange      EXHF   =         0.00000000
  -V(xc)+E(xc)   XCENC  =       -17.93102382
  PAW double counting   =        76.23260473      -41.31573192
  entropy T*S    EENTRO =        -0.00000010
  eigenvalues    EBANDS =         6.65425655
  atomic energy  EATOM  =       206.12257231
  Solvation  Ediel_sol  =         0.00000000
  ---------------------------------------------------
  free energy    TOTEN  =       -10.63188631 eV

  energy without entropy =      -10.63188622  energy(sigma->0) =      -10.63188627


--------------------------------------------------------------------------------------------------------




--------------------------------------- Iteration      1(   8)  ---------------------------------------


    POTLOK:  cpu time    0.0028: real time    0.0029
    SETDIJ:  cpu time    0.0010: real time    0.0010
     EDDAV:  cpu time    0.0589: real time    0.0589
       DOS:  cpu time    0.0002: real time    0.0002
    CHARGE:  cpu time    0.0018: real time    0.0018
    MIXING:  cpu time    0.0003: real time    0.0003
    --------------------------------------------
      LOOP:  cpu time    0.0649: real time    0.0651

 eigenvalue-minimisations  :   476
 total energy-change (2. order) :-0.1739246E-02  (-0.3066167E-03)
 number of electron       7.9999994 magnetization 
 augmentation part       -0.4520439 magnetization 

 Broyden mixing:
  rms(total) = 0.26125E-02    rms(broyden)= 0.26119E-02
  rms(prec ) = 0.82952E-02
  weight for this iteration     100.00

 eigenvalues of (default mixing * dielectric matrix)
  average eigenvalue GAMMA=   2.1292
  1.2874  2.8564  2.2439

 Free energy of the ion-electron system (eV)
  ---------------------------------------------------
  alpha Z        PSCENC =         3.36414203
  Ewald energy   TEWEN  =      -228.56352493
  -Hartree energ DENC   =       -15.18915034
  -exchange      EXHF   =         0.00000000
  -V(xc)+E(xc)   XCENC  =       -17.91929998
  PAW double counting   =        75.32261262      -40.37683228
  entropy T*S    EENTRO =        -0.00000004
  eigenvalues    EBANDS =         6.60585505
  atomic energy  EATOM  =       206.12257231
  Solvation  Ediel_sol  =         0.00000000
  ---------------------------------------------------
  free energy    TOTEN  =       -10.63362556 eV

  energy without entropy =      -10.63362552  energy(sigma->0) =      -10.63362554


--------------------------------------------------------------------------------------------------------




--------------------------------------- Iteration      1(   9)  ---------------------------------------


    POTLOK:  cpu time    0.0026: real time    0.0027
    SETDIJ:  cpu time    0.0013: real time    0.0013
     EDDAV:  cpu time    0.1061: real time    0.1061
       DOS:  cpu time    0.0003: real time    0.0003
    CHARGE:  cpu time    0.0017: real time    0.0017
    MIXING:  cpu time    0.0003: real time    0.0003
    --------------------------------------------
      LOOP:  cpu time    0.1122: real time    0.1123

 eigenvalue-minimisations  :   700
 total energy-change (2. order) :-0.1304818E-03  (-0.1068986E-04)
 number of electron       7.9999994 magnetization 
 augmentation part       -0.4520637 magnetization 

 Broyden mixing:
  rms(total) = 0.13538E-02    rms(broyden)= 0.13537E-02
  rms(prec ) = 0.34812E-02
  weight for this iteration     100.00

 eigenvalues of (default mixing * dielectric matrix)
  average eigenvalue GAMMA=   2.2184
  0.9746  3.0867  2.5511  2.2614

 Free energy of the ion-electron system (eV)
  ---------------------------------------------------
  alpha Z        PSCENC =         3.36414203
  Ewald energy   TEWEN  =      -228.56352493
  -Hartree energ DENC   =       -15.22434148
  -exchange      EXHF   =         0.00000000
  -V(xc)+E(xc)   XCENC  =       -17.91326666
  PAW double counting   =        75.26834868      -40.32121288
  entropy T*S    EENTRO =        -0.00000004
  eigenvalues    EBANDS =         6.63352692
  atomic energy  EATOM  =       206.12257231
  Solvation  Ediel_sol  =         0.00000000
  ---------------------------------------------------
  free energy    TOTEN  =       -10.63375604 eV

  energy without entropy =      -10.63375601  energy(sigma->0) =      -10.63375602


--------------------------------------------------------------------------------------------------------




--------------------------------------- Iteration      1(  10)  ---------------------------------------


    POTLOK:  cpu time    0.0024: real time    0.0025
    SETDIJ:  cpu time    0.0008: real time    0.0008
     EDDAV:  cpu time    0.0522: real time    0.0522
       DOS:  cpu time    0.0002: real time    0.0002
    --------------------------------------------
      LOOP:  cpu time    0.0557: real time    0.0558

 eigenvalue-minimisations  :   504
 total energy-change (2. order) :-0.2133741E-04  (-0.3210659E-05)
 number of electron       7.9999994 magnetization 
 augmentation part       -0.4520637 magnetization 

 Free energy of the ion-electron system (eV)
  ---------------------------------------------------
  alpha Z        PSCENC =         3.36414203
  Ewald energy   TEWEN  =      -228.56352493
  -Hartree energ DENC   =       -15.23473985
  -exchange      EXHF   =         0.00000000
  -V(xc)+E(xc)   XCENC  =       -17.91347054
  PAW double counting   =        75.26670529      -40.32059962
  entropy T*S    EENTRO =        -0.00000003
  eigenvalues    EBANDS =         6.64513797
  atomic energy  EATOM  =       206.12257231
  Solvation  Ediel_sol  =         0.00000000
  ---------------------------------------------------
  free energy    TOTEN  =       -10.63377738 eV

  energy without entropy =      -10.63377735  energy(sigma->0) =      -10.63377736


--------------------------------------------------------------------------------------------------------




 average (electrostatic) potential at core
  the test charge radii are     0.9892
  (the norm of the test charge is              1.0000)
       1 -83.1771       2 -83.1771
 
 
 
 E-fermi :   6.2310     XC(G=0):  -9.3848     alpha+bet :-11.9845


 k-point     1 :       0.0000    0.0000    0.0000
  band No.  band energies     occupation 
      1      -6.0949      2.00000
      2       5.8854      2.00000
      3       5.8854      2.00000
      4       5.8854      2.00000
      5       8.4350      0.00000
      6       8.4350      0.00000
      7       8.4350      0.00000
      8       9.2558      0.00000
      9      13.6497      0.00000
     10      13.6497      0.00000
     11      13.8356      0.00000
     12      17.1314      0.00000
     13      17.1314      0.00000
     14      17.1314      0.00000
     15      21.2858      0.00000
     16      29.2032      0.00000
     17      29.2033      0.00000
     18      29.2033      0.00000
     19      30.3684      0.00000
     20      30.3684      0.00000
     21      31.7828      0.00000
     22      31.7829      0.00000
     23      31.7829      0.00000
     24      35.1089      0.00000
     25      35.1089      0.00000
     26      35.1089      0.00000
     27      41.1830      0.00000
     28      41.1831      0.00000

 k-point     2 :       0.2500    0.0000    0.0000
  band No.  band energies     occupation 
      1      -5.2942      2.00000
      2       1.9463      2.00000
      3       5.1187      2.00000
      4       5.1187      2.00000
      5       7.9130      0.00000
      6       9.3832      0.00000
      7       9.3832      0.00000
      8      12.8120      0.00000
      9      13.0989      0.00000
     10      13.0989      0.00000
     11      14.8727      0.00000
     12      17.7390      0.00000
     13      20.5802      0.00000
     14      20.5802      0.00000
     15      23.8057      0.00000
     16      23.8058      0.00000
     17      23.9859      0.00000
     18      25.9786      0.00000
     19      30.1713      0.00000
     20      30.1716      0.00000
     21      32.6747      0.00000
     22      32.6747      0.00000
     23      34.0133      0.00000
     24      35.5476      0.00000
     25      35.8146      0.00000
     26      37.8099      0.00000
     27      37.8100      0.00000
     28      39.6442      0.00000

 k-point     3 :       0.5000    0.0000    0.0000
  band No.  band energies     occupation 
      1      -3.7589      2.00000
      2      -1.1034      2.00000
      3       4.6782      2.00000
      4       4.6783      2.00000
      5       7.4218      0.00000
      6       9.2181      0.00000
      7       9.2182      0.00000
      8      13.5991      0.00000
      9      16.5261      0.00000
     10      16.5262      0.00000
     11      17.2457      0.00000
     12      17.2457      0.00000
     13      17.2612      0.00000
     14      18.9099      0.00000
     15      25.4052      0.00000
     16      25.8947      0.00000
     17      27.6237      0.00000
     18      27.6238      0.00000
     19      27.8471      0.00000
     20      27.8473      0.00000
     21      31.7092      0.00000
     22      32.4360      0.00000
     23      32.4362      0.00000
     24      33.5155      0.00000
     25      33.5155      0.00000
     26      34.2210      0.00000
     27      36.8947      0.00000
     28      38.4590      0.00000

 k-point     4 :       0.2500    0.2500    0.0000
  band No.  band energies     occupation 
      1      -5.0117      2.00000
      2       2.3631      2.00000
      3       3.9824      2.00000
      4       3.9825      2.00000
      5       7.0028      0.00000
      6       9.0135      0.00000
      7      11.6509      0.00000
      8      11.6510      0.00000
      9      13.9687      0.00000
     10      14.8588      0.00000
     11      17.3191      0.00000
     12      18.9311      0.00000
     13      18.9312      0.00000
     14      19.6463      0.00000
     15      23.3638      0.00000
     16      23.3639      0.00000
     17      24.3396      0.00000
     18      26.3457      0.00000
     19      26.9517      0.00000
     20      30.9781      0.00000
     21      32.4536      0.00000
     22      33.3651      0.00000
     23      33.3652      0.00000
     24      35.4630      0.00000
     25      35.4630      0.00000
     26      35.7851      0.00000
     27      36.3535      0.00000
     28      40.8770      0.00000

 k-point     5 :       0.5000    0.2500    0.0000
  band No.  band energies     occupation 
      1      -3.3728      2.00000
      2      -0.5104      2.00000
      3       2.3335      2.00000
      4       3.6662      2.00000
      5       7.3972      0.00000
      6      10.3353      0.00000
      7      11.6392      0.00000
      8      11.8088      0.00000
      9      16.1204      0.00000
     10      16.4762      0.00000
     11      18.1029      0.00000
     12      18.6232      0.00000
     13      18.9339      0.00000
     14      22.7980      0.00000
     15      23.7082      0.00000
     16      24.6196      0.00000
     17      25.2974      0.00000
     18      25.5851      0.00000
     19      25.9136      0.00000
     20      28.8513      0.00000
     21      29.8222      0.00000
     22      31.1676      0.00000
     23      31.5740      0.00000
     24      33.7834      0.00000
     25      35.0757      0.00000
     26      35.3446      0.00000
     27      35.3482      0.00000
     28      37.1522      0.00000

 k-point     6 :      -0.2500    0.2500    0.0000
  band No.  band energies     occupation 
      1      -4.0482      2.00000
      2       0.3944      2.00000
      3       2.1133      2.00000
      4       4.5473      2.00000
      5       8.3295      0.00000
      6      10.6665      0.00000
      7      11.0398      0.00000
      8      12.0312      0.00000
      9      12.3565      0.00000
     10      15.5407      0.00000
     11      18.5380      0.00000
     12      19.1429      0.00000
     13      19.3549      0.00000
     14      22.5982      0.00000
     15      23.0948      0.00000
     16      23.4376      0.00000
     17      24.6749      0.00000
     18      27.3037      0.00000
     19      27.6312      0.00000
     20      29.9741      0.00000
     21      30.7186      0.00000
     22      31.2981      0.00000
     23      32.8044      0.00000
     24      33.0274      0.00000
     25      33.8711      0.00000
     26      35.2476      0.00000
     27      36.4064      0.00000
     28      37.1794      0.00000

 k-point     7 :       0.5000    0.5000    0.0000
  band No.  band energies     occupation 
      1      -1.9448      2.00000
      2      -1.9448      2.00000
      3       3.0166      2.00000
      4       3.0166      2.00000
      5       6.5860      0.00000
      6       6.5861      0.00000
      7      16.0019      0.00000
      8      16.0020      0.00000
      9      16.9604      0.00000
     10      16.9604      0.00000
     11      18.4834      0.00000
     12      18.4834      0.00000
     13      18.9564      0.00000
     14      18.9564      0.00000
     15      24.8529      0.00000
     16      24.8529      0.00000
     17      25.6591      0.00000
     18      25.6591      0.00000
     19      26.1113      0.00000
     20      26.1113      0.00000
     21      27.4233      0.00000
     22      27.4233      0.00000
     23      31.7009      0.00000
     24      31.7011      0.00000
     25      35.4615      0.00000
     26      35.4616      0.00000
     27      40.1385      0.00000
     28      40.1386      0.00000

 k-point     8 :      -0.2500    0.5000    0.2500
  band No.  band energies     occupation 
      1      -1.7799      2.00000
      2      -1.7798      2.00000
      3       2.0117      2.00000
      4       2.0118      2.00000
      5      10.1589      0.00000
      6      10.1589      0.00000
      7      10.8823      0.00000
      8      10.8823      0.00000
      9      16.5046      0.00000
     10      16.5046      0.00000
     11      18.9534      0.00000
     12      18.9534      0.00000
     13      22.3793      0.00000
     14      22.3794      0.00000
     15      24.4760      0.00000
     16      24.4760      0.00000
     17      24.9275      0.00000
     18      24.9276      0.00000
     19      25.8516      0.00000
     20      25.8516      0.00000
     21      29.6647      0.00000
     22      29.6648      0.00000
     23      33.4195      0.00000
     24      33.4195      0.00000
     25      33.5623      0.00000
     26      33.5623      0.00000
     27      35.3409      0.00000
     28      35.3409      0.00000


--------------------------------------------------------------------------------------------------------


 soft charge-density along one line, spin component           1
         0         1         2         3         4         5         6         7         8         9
 total charge-density along one line
 
 pseudopotential strength for first ion, spin component:           1
 18.409  -0.001  -0.000  -0.000  -0.000   0.000   0.000   0.000
 -0.001   0.006   0.000   0.000   0.000  -0.000  -0.000  -0.000
 -0.000   0.000   4.179  -0.000  -0.000  -0.005   0.000   0.000
 -0.000   0.000  -0.000   4.179  -0.000   0.000  -0.005   0.000
 -0.000   0.000  -0.000  -0.000   4.179   0.000   0.000  -0.005
  0.000  -0.000  -0.005   0.000   0.000   0.005  -0.000  -0.000
  0.000  -0.000   0.000  -0.005   0.000  -0.000   0.005  -0.000
  0.000  -0.000   0.000   0.000  -0.005  -0.000  -0.000   0.005
 total augmentation occupancy for first ion, spin component:           1
  1.459  -0.891   0.000   0.000   0.000   0.000   0.000   0.000
 -0.891   0.862   0.000  -0.000   0.000   0.000  -0.000  -0.000
  0.000   0.000   1.049  -0.000  -0.000  -0.666   0.000   0.000
  0.000   0.000  -0.000   1.049   0.000   0.000  -0.666   0.000
  0.000   0.000  -0.000   0.000   1.049   0.000   0.000  -0.666
  0.000   0.000  -0.666   0.000   0.000   0.487  -0.000   0.000
  0.000  -0.000   0.000  -0.666   0.000  -0.000   0.487  -0.000
 -0.000  -0.000   0.000   0.000  -0.666   0.000  -0.000   0.487


------------------------ aborting loop because EDIFF is reached ----------------------------------------


    CHARGE:  cpu time    0.0015: real time    0.0015
    FORLOC:  cpu time    0.0001: real time    0.0001
    FORNL :  cpu time    0.0012: real time    0.0012
    STRESS:  cpu time    0.0109: real time    0.0109
    FORCOR:  cpu time    0.0014: real time    0.0014
    FORHAR:  cpu time    0.0004: real time    0.0004
    MIXING:  cpu time    0.0002: real time    0.0002
    OFIELD:  cpu time    0.0000: real time    0.0000

  FORCE on cell =-STRESS in cart. coord.  units (eV):
  Direction    XX          YY          ZZ          XY          YZ          ZX
  --------------------------------------------------------------------------------------
  Alpha Z     3.36414     3.36414     3.36414
  Ewald     -76.18788   -76.18788   -76.18788    -0.00000     0.00000     0.00000
  Hartree     5.07771     5.07771     5.07771    -0.00000    -0.00000    -0.00000
  E(xc)     -25.44326   -25.44326   -25.44326     0.00001     0.00001     0.00001
  Local     -29.52543   -29.52543   -29.52543     0.00005     0.00005     0.00005
  n-local    79.77176    73.84399    79.47105    -0.96489     0.96496     2.85082
  augment   -11.47782   -11.47782   -11.47782    -0.00004    -0.00004    -0.00004
  Kinetic    57.93997    54.56116    58.80819    -1.08420     1.08420     4.22211
  Fock        0.00000     0.00000     0.00000     0.00000     0.00000     0.00000
  -------------------------------------------------------------------------------------
  Total       0.60617     0.60617     0.60617     0.00000    -0.00000    -0.00000
  in kB      24.26407    24.26407    24.26407     0.00000    -0.00000    -0.00000
  external pressure =       24.26 kB  Pullay stress =        0.00 kB


 VOLUME and BASIS-vectors are now :
 -----------------------------------------------------------------------------
  energy-cutoff  :      245.34
  volume of cell :       40.03
      direct lattice vectors                 reciprocal lattice vectors
     2.715000000  2.715000000  0.000000000     0.184162063  0.184162063 -0.184162063
     0.000000000  2.715000000  2.715000000    -0.184162063  0.184162063  0.184162063
     2.715000000  0.000000000  2.715000000     0.184162063 -0.184162063  0.184162063

  length of vectors
     3.839589822  3.839589822  3.839589822     0.318978049  0.318978049  0.318978049


 FORCES acting on ions
    electron-ion (+dipol)            ewald-force                    non-local-force                 convergence-correction
 -----------------------------------------------------------------------------------------------
   0.298E-05 0.290E-05 0.298E-05   -.273E-14 0.111E-14 0.310E-14   0.763E-16 0.108E-15 0.833E-16   0.353E-06 0.353E-06 0.353E-06
   -.298E-05 -.290E-05 -.298E-05   0.315E-14 -.993E-15 -.291E-14   -.118E-15 -.101E-15 -.763E-16   -.353E-06 -.353E-06 -.353E-06
 -----------------------------------------------------------------------------------------------
   0.422E-13 0.259E-13 0.428E-13   0.422E-15 0.120E-15 0.187E-15   -.416E-16 0.694E-17 0.694E-17   0.122E-14 -.329E-14 0.196E-14
 
 
 POSITION                                       TOTAL-FORCE (eV/Angst)
 -----------------------------------------------------------------------------------
      0.00000      0.00000      0.00000         0.000000      0.000000      0.000000
      1.35750      1.35750      1.35750        -0.000000     -0.000000     -0.000000
 -----------------------------------------------------------------------------------
    total drift:                                0.000000      0.000000      0.000000


--------------------------------------------------------------------------------------------------------



  FREE ENERGIE OF THE ION-ELECTRON SYSTEM (eV)
  ---------------------------------------------------
  free  energy   TOTEN  =       -10.63377738 eV

  energy  without entropy=      -10.63377735  energy(sigma->0) =      -10.63377736
 


--------------------------------------------------------------------------------------------------------


    POTLOK:  cpu time    0.0025: real time    0.0025


--------------------------------------------------------------------------------------------------------


 writing wavefunctions
     LOOP+:  cpu time    0.8525: real time    0.8611
    4ORBIT:  cpu time    0.0000: real time    0.0000

 total amount of memory used by VASP MPI-rank0    30610. kBytes
=======================================================================

   base      :      30000. kBytes
   nonl-proj :        198. kBytes
   fftplans  :         86. kBytes
   grid      :        270. kBytes
   one-center:          6. kBytes
   wavefun   :         50. kBytes
 
  
  
 General timing and accounting informations for this job:
 ========================================================
  
                  Total CPU time used (sec):        1.227
                            User time (sec):        1.136
                          System time (sec):        0.091
                         Elapsed time (sec):        1.668
  
                   Maximum memory used (kb):       38560.
                   Average memory used (kb):           0.
  
                          Minor page faults:        17688
                          Major page faults:            1
                 Voluntary context switches:         1079
