<?xml version="1.0" encoding="ISO-8859-1"?>
<modeling>
 <generator>
  <i name="program" type="string">vasp </i>
  <i name="version" type="string">5.4.4.18Apr17-6-g9f103f2a35  </i>
  <i name="subversion" type="string">(build Apr 19 2022 13:31:49) complex            parallel </i>
  <i name="platform" type="string">LinuxIFC </i>
  <i name="date" type="string">2023 12 25 </i>
  <i name="time" type="string">02:10:29 </i>
 </generator>
 <incar>
  <i type="string" name="SYSTEM"> fcc Si</i>
  <i type="string" name="PREC">normal</i>
  <i type="int" name="ISYM">     2</i>
  <i type="int" name="ISMEAR">     0</i>
  <i name="SIGMA">      0.10000000</i>
  <v type="int" name="KPOINT_BSE">    -1     0     0     0</v>
 </incar>
 <structure name="primitive_cell" >
  <crystal>
   <varray name="basis" >
    <v>       2.71500000       2.71500000       0.00000000 </v>
    <v>       0.00000000       2.71500000       2.71500000 </v>
    <v>       2.71500000       0.00000000       2.71500000 </v>
   </varray>
   <i name="volume">     40.02575175 </i>
   <varray name="rec_basis" >
    <v>       0.18416206       0.18416206      -0.18416206 </v>
    <v>      -0.18416206       0.18416206       0.18416206 </v>
    <v>       0.18416206      -0.18416206       0.18416206 </v>
   </varray>
  </crystal>
  <varray name="positions" >
   <v>       0.00000000       0.00000000       0.00000000 </v>
   <v>       0.25000000       0.25000000       0.25000000 </v>
  </varray>
 </structure>
 <varray name="primitive_index" >
  <v type="int" >        1 </v>
  <v type="int" >        2 </v>
 </varray>
 <kpoints>
  <generation param="Gamma">
   <v type="int" name="divisions">       4        4        4 </v>
   <v name="usershift">      0.00000000       0.00000000       0.00000000 </v>
   <v name="genvec1">      0.25000000       0.00000000       0.00000000 </v>
   <v name="genvec2">      0.00000000       0.25000000       0.00000000 </v>
   <v name="genvec3">      0.00000000       0.00000000       0.25000000 </v>
   <v name="shift">      0.00000000       0.00000000       0.00000000 </v>
  </generation>
  <varray name="kpointlist" >
   <v>       0.00000000       0.00000000       0.00000000 </v>
   <v>       0.25000000       0.00000000       0.00000000 </v>
   <v>       0.50000000       0.00000000       0.00000000 </v>
   <v>       0.25000000       0.25000000       0.00000000 </v>
   <v>       0.50000000       0.25000000       0.00000000 </v>
   <v>      -0.25000000       0.25000000       0.00000000 </v>
   <v>       0.50000000       0.50000000       0.00000000 </v>
   <v>      -0.25000000       0.50000000       0.25000000 </v>
  </varray>
  <varray name="weights" >
   <v>       0.01562500 </v>
   <v>       0.12500000 </v>
   <v>       0.06250000 </v>
   <v>       0.09375000 </v>
   <v>       0.37500000 </v>
   <v>       0.18750000 </v>
   <v>       0.04687500 </v>
   <v>       0.09375000 </v>
  </varray>
 </kpoints>
 <parameters>
  <separator name="general" >
   <i type="string" name="SYSTEM">fcc Si</i>
   <i type="logical" name="LCOMPAT"> F  </i>
  </separator>
  <separator name="electronic" >
   <i type="string" name="PREC">normal</i>
   <i name="ENMAX">    245.34500000</i>
   <i name="ENAUG">    322.06900000</i>
   <i name="EDIFF">      0.00010000</i>
   <i type="int" name="IALGO">    38</i>
   <i type="int" name="IWAVPR">    10</i>
   <i type="int" name="NBANDS">    28</i>
   <i name="NELECT">      8.00000000</i>
   <i type="int" name="TURBO">     0</i>
   <i type="int" name="IRESTART">     0</i>
   <i type="int" name="NREBOOT">     0</i>
   <i type="int" name="NMIN">     0</i>
   <i name="EREF">      0.00000000</i>
   <separator name="electronic smearing" >
    <i type="int" name="ISMEAR">     0</i>
    <i name="SIGMA">      0.10000000</i>
    <i name="KSPACING">      0.50000000</i>
    <i type="logical" name="KGAMMA"> T  </i>
   </separator>
   <separator name="electronic projectors" >
    <i type="logical" name="LREAL"> F  </i>
    <v name="ROPT">      0.00000000</v>
    <i type="int" name="LMAXPAW">  -100</i>
    <i type="int" name="LMAXMIX">     2</i>
    <i type="logical" name="NLSPLINE"> F  </i>
   </separator>
   <separator name="electronic startup" >
    <i type="int" name="ISTART">     0</i>
    <i type="int" name="ICHARG">     2</i>
    <i type="int" name="INIWAV">     1</i>
   </separator>
   <separator name="electronic spin" >
    <i type="int" name="ISPIN">     1</i>
    <i type="logical" name="LNONCOLLINEAR"> F  </i>
    <v name="MAGMOM">      1.00000000      1.00000000</v>
    <i name="NUPDOWN">     -1.00000000</i>
    <i type="logical" name="LSORBIT"> F  </i>
    <v name="SAXIS">      0.00000000      0.00000000      1.00000000</v>
    <i type="logical" name="LSPIRAL"> F  </i>
    <v name="QSPIRAL">      0.00000000      0.00000000      0.00000000</v>
    <i type="logical" name="LZEROZ"> F  </i>
   </separator>
   <separator name="electronic exchange-correlation" >
    <i type="logical" name="LASPH"> F  </i>
    <i type="logical" name="LMETAGGA"> F  </i>
   </separator>
   <separator name="electronic convergence" >
    <i type="int" name="NELM">    60</i>
    <i type="int" name="NELMDL">    -5</i>
    <i type="int" name="NELMIN">     2</i>
    <i name="ENINI">    245.34500000</i>
    <separator name="electronic convergence detail" >
     <i type="logical" name="LDIAG"> T  </i>
     <i type="logical" name="LSUBROT"> F  </i>
     <i name="WEIMIN">      0.00000000</i>
     <i name="EBREAK">      0.00000089</i>
     <i name="DEPER">      0.30000000</i>
     <i type="int" name="NRMM">     4</i>
     <i name="TIME">      0.40000000</i>
    </separator>
   </separator>
   <separator name="electronic mixer" >
    <i name="AMIX">      0.40000000</i>
    <i name="BMIX">      1.00000000</i>
    <i name="AMIN">      0.10000000</i>
    <i name="AMIX_MAG">      1.60000000</i>
    <i name="BMIX_MAG">      1.00000000</i>
    <separator name="electronic mixer details" >
     <i type="int" name="IMIX">     4</i>
     <i type="logical" name="MIXFIRST"> F  </i>
     <i type="int" name="MAXMIX">   -45</i>
     <i name="WC">    100.00000000</i>
     <i type="int" name="INIMIX">     1</i>
     <i type="int" name="MIXPRE">     1</i>
     <i type="int" name="MREMOVE">     5</i>
    </separator>
   </separator>
   <separator name="electronic dipolcorrection" >
    <i type="logical" name="LDIPOL"> F  </i>
    <i type="logical" name="LMONO"> F  </i>
    <i type="int" name="IDIPOL">     0</i>
    <i name="EPSILON">      1.00000000</i>
    <v name="DIPOL">   -100.00000000   -100.00000000   -100.00000000</v>
    <i name="EFIELD">      0.00000000</i>
   </separator>
  </separator>
  <separator name="grids" >
   <i type="int" name="NGX">    16</i>
   <i type="int" name="NGY">    16</i>
   <i type="int" name="NGZ">    16</i>
   <i type="int" name="NGXF">    32</i>
   <i type="int" name="NGYF">    32</i>
   <i type="int" name="NGZF">    32</i>
   <i type="logical" name="ADDGRID"> F  </i>
  </separator>
  <separator name="ionic" >
   <i type="int" name="NSW">     0</i>
   <i type="int" name="IBRION">    -1</i>
   <i type="int" name="MDALGO">     0</i>
   <i type="int" name="ISIF">     2</i>
   <i name="PSTRESS">      0.00000000</i>
   <i name="EDIFFG">      0.00100000</i>
   <i type="int" name="NFREE">     0</i>
   <i name="POTIM">      0.50000000</i>
   <i name="SMASS">     -3.00000000</i>
   <i name="SCALEE">      1.00000000</i>
  </separator>
  <separator name="ionic md" >
   <i name="TEBEG">      0.00010000</i>
   <i name="TEEND">      0.00010000</i>
   <i type="int" name="NBLOCK">     1</i>
   <i type="int" name="KBLOCK">     1</i>
   <i type="int" name="NPACO">   256</i>
   <i name="APACO">     16.00000000</i>
  </separator>
  <separator name="symmetry" >
   <i type="int" name="ISYM">     2</i>
   <i name="SYMPREC">      0.00001000</i>
  </separator>
  <separator name="dos" >
   <i type="int" name="LORBIT">     0</i>
   <v name="RWIGS">     -1.00000000</v>
   <i type="int" name="NEDOS">   301</i>
   <i name="EMIN">     10.00000000</i>
   <i name="EMAX">    -10.00000000</i>
   <i name="EFERMI">      0.00000000</i>
  </separator>
  <separator name="writing" >
   <i type="int" name="NWRITE">     2</i>
   <i type="logical" name="LWAVE"> T  </i>
   <i type="logical" name="LDOWNSAMPLE"> F  </i>
   <i type="logical" name="LCHARG"> T  </i>
   <i type="logical" name="LPARD"> F  </i>
   <i type="logical" name="LVTOT"> F  </i>
   <i type="logical" name="LVHAR"> F  </i>
   <i type="logical" name="LELF"> F  </i>
   <i type="logical" name="LOPTICS"> F  </i>
   <v name="STM">      0.00000000      0.00000000      0.00000000      0.00000000      0.00000000      0.00000000      0.00000000</v>
  </separator>
  <separator name="performance" >
   <i type="int" name="NPAR">    28</i>
   <i type="int" name="NSIM">     4</i>
   <i type="int" name="NBLK">    -1</i>
   <i type="logical" name="LPLANE"> T  </i>
   <i type="logical" name="LSCALAPACK"> T  </i>
   <i type="logical" name="LSCAAWARE"> T  </i>
   <i type="logical" name="LSCALU"> F  </i>
   <i type="logical" name="LASYNC"> F  </i>
   <i type="logical" name="LORBITALREAL"> F  </i>
  </separator>
  <separator name="miscellaneous" >
   <i type="int" name="IDIOT">     3</i>
   <i type="int" name="ISPECIAL">     0</i>
   <i type="logical" name="LMUSIC"> F  </i>
   <v name="POMASS">     28.08500000</v>
   <v name="DARWINR">      0.00000000</v>
   <v name="DARWINV">      1.00000000</v>
   <i type="logical" name="LCORR"> T  </i>
  </separator>
  <i type="logical" name="GGA_COMPAT"> T  </i>
  <i type="logical" name="LBERRY"> F  </i>
  <i type="int" name="ICORELEVEL">     0</i>
  <i type="logical" name="LDAU"> F  </i>
  <i type="int" name="I_CONSTRAINED_M">     0</i>
  <separator name="electronic exchange-correlation" >
   <i type="string" name="GGA">--</i>
   <i type="int" name="VOSKOWN">     0</i>
   <i type="logical" name="LHFCALC"> F  </i>
   <i type="string" name="PRECFOCK"></i>
   <i type="logical" name="LSYMGRAD"> F  </i>
   <i type="logical" name="LHFONE"> F  </i>
   <i type="logical" name="LRHFCALC"> F  </i>
   <i type="logical" name="LTHOMAS"> F  </i>
   <i type="logical" name="LMODELHF"> F  </i>
   <i name="ENCUT4O">     -1.00000000</i>
   <i type="int" name="EXXOEP">     0</i>
   <i type="int" name="FOURORBIT">     0</i>
   <i name="AEXX">      0.00000000</i>
   <i name="HFALPHA">      0.00000000</i>
   <i name="MCALPHA">      0.00000000</i>
   <i name="ALDAX">      1.00000000</i>
   <i name="AGGAX">      1.00000000</i>
   <i name="ALDAC">      1.00000000</i>
   <i name="AGGAC">      1.00000000</i>
   <i type="int" name="NKREDX">     1</i>
   <i type="int" name="NKREDY">     1</i>
   <i type="int" name="NKREDZ">     1</i>
   <i type="logical" name="SHIFTRED"> F  </i>
   <i type="logical" name="ODDONLY"> F  </i>
   <i type="logical" name="EVENONLY"> F  </i>
   <i type="int" name="LMAXFOCK">     0</i>
   <i type="int" name="NMAXFOCKAE">     0</i>
   <i type="logical" name="LFOCKAEDFT"> F  </i>
   <i name="HFSCREEN">      0.00000000</i>
   <i name="HFSCREENC">      0.00000000</i>
   <i type="int" name="NBANDSGWLOW">     0</i>
  </separator>
  <separator name="vdW DFT" >
   <i type="logical" name="LUSE_VDW"> F  </i>
   <i name="Zab_VDW">     -0.84910000</i>
   <i name="PARAM1">      0.12340000</i>
   <i name="PARAM2">      1.00000000</i>
   <i name="PARAM3">      0.00000000</i>
  </separator>
  <separator name="model GW" >
   <i type="int" name="MODEL_GW">     0</i>
   <i name="MODEL_EPS0">     12.00772552</i>
   <i name="MODEL_ALPHA">      1.00000000</i>
  </separator>
  <separator name="linear response parameters" >
   <i type="logical" name="LEPSILON"> F  </i>
   <i type="logical" name="LRPA"> F  </i>
   <i type="logical" name="LNABLA"> F  </i>
   <i type="logical" name="LVEL"> F  </i>
   <i type="int" name="KINTER">     0</i>
   <i name="CSHIFT">      0.10000000</i>
   <i name="OMEGAMAX">     -1.00000000</i>
   <i name="DEG_THRESHOLD">      0.00200000</i>
   <i name="RTIME">     -0.10000000</i>
   <i name="WPLASMAI">      0.00000000</i>
   <v name="DFIELD">      0.00000000      0.00000000      0.00000000</v>
   <v name="WPLASMA">      0.00000000      0.00000000      0.00000000      0.00000000      0.00000000      0.00000000      0.00000000      0.00000000      0.00000000</v>
  </separator>
  <separator name="orbital magnetization" >
   <i type="logical" name="NUCIND"> F  </i>
   <v name="MAGPOS">      0.00000000      0.00000000      0.00000000</v>
   <i type="logical" name="LNICSALL"> T  </i>
   <i type="logical" name="ORBITALMAG"> F  </i>
   <i type="logical" name="LMAGBLOCH"> F  </i>
   <i type="logical" name="LCHIMAG"> F  </i>
   <i type="logical" name="LGAUGE"> T  </i>
   <i type="int" name="MAGATOM">     0</i>
   <v name="MAGDIPOL">      0.00000000      0.00000000      0.00000000</v>
   <v name="AVECCONST">      0.00000000      0.00000000      0.00000000</v>
  </separator>
  <separator name="response functions" >
   <i type="logical" name="LADDER"> F  </i>
   <i type="logical" name="LRPAFORCE"> F  </i>
   <i type="logical" name="LFXC"> F  </i>
   <i type="logical" name="LHARTREE"> T  </i>
   <i type="int" name="IBSE">     0</i>
   <v type="int" name="KPOINT">    -1     0     0     0</v>
   <i type="logical" name="LTCTE"> F  </i>
   <i type="logical" name="LTETE"> F  </i>
   <i type="logical" name="LTRIPLET"> F  </i>
   <i type="logical" name="LFXCEPS"> F  </i>
   <i type="logical" name="LFXHEG"> F  </i>
   <i type="int" name="NATURALO">     2</i>
   <i type="logical" name="L2ORDER"> F  </i>
   <i type="logical" name="LMP2LT"> F  </i>
   <i type="logical" name="LUSEW"> F  </i>
   <i name="ENCUTGW">     -2.00000000</i>
   <i name="ENCUTGWSOFT">     -2.00000000</i>
   <i name="ENCUTLF">     -1.00000000</i>
   <i type="int" name="LMAXMP2">    -1</i>
   <i name="SCISSOR">      0.00000000</i>
   <i type="int" name="NOMEGA">     0</i>
   <i type="int" name="NOMEGAR">     0</i>
   <i type="int" name="NBANDSGW">    -1</i>
   <i type="int" name="NBANDSO">    -1</i>
   <i type="int" name="NBANDSV">    -1</i>
   <i type="int" name="NELM">     1</i>
   <i type="int" name="NELMHF">     1</i>
   <i type="int" name="DIM">     3</i>
   <i type="int" name="ANTIRES">     0</i>
   <i name="OMEGAMAX">    -30.00000000</i>
   <i name="OMEGAMIN">    -30.00000000</i>
   <i name="OMEGATL">   -200.00000000</i>
   <i type="int" name="OMEGAGRID">   140</i>
   <i name="CSHIFT">     -0.10000000</i>
   <i type="logical" name="SELFENERGY"> F  </i>
   <i type="logical" name="LSPECTRAL"> F  </i>
   <i type="logical" name="LSPECTRALGW"> F  </i>
   <i type="logical" name="LSINGLES"> F  </i>
   <i type="logical" name="LFERMIGW"> F  </i>
   <i type="logical" name="ODDONLYGW"> F  </i>
   <i type="logical" name="EVENONLYGW"> F  </i>
   <i type="int" name="NKREDLFX">     1</i>
   <i type="int" name="NKREDLFY">     1</i>
   <i type="int" name="NKREDLFZ">     1</i>
   <i type="int" name="MAXMEM">  2800</i>
   <i type="int" name="TELESCOPE">     0</i>
   <i type="int" name="TAUPAR">     1</i>
   <i type="int" name="OMEGAPAR">    -1</i>
   <i name="LAMBDA">      1.00000000</i>
  </separator>
  <separator name="External order field" >
   <i name="OFIELD_KAPPA">      0.00000000</i>
   <v name="OFIELD_K">      0.00000000      0.00000000      0.00000000</v>
   <i name="OFIELD_Q6_NEAR">      0.00000000</i>
   <i name="OFIELD_Q6_FAR">      0.00000000</i>
   <i name="OFIELD_A">      0.00000000</i>
  </separator>
 </parameters>
 <atominfo>
  <atoms>       2 </atoms>
  <types>       1 </types>
  <array name="atoms" >
   <dimension dim="1">ion</dimension>
   <field type="string">element</field>
   <field type="int">atomtype</field>
   <set>
    <rc><c>Si</c><c>   1</c></rc>
    <rc><c>Si</c><c>   1</c></rc>
   </set>
  </array>
  <array name="atomtypes" >
   <dimension dim="1">type</dimension>
   <field type="int">atomspertype</field>
   <field type="string">element</field>
   <field>mass</field>
   <field>valence</field>
   <field type="string">pseudopotential</field>
   <set>
    <rc><c>   2</c><c>Si</c><c>     28.08500000</c><c>      4.00000000</c><c> PAW_PBE Si 05Jan2001                   </c></rc>
   </set>
  </array>
 </atominfo>
 <structure name="initialpos" >
  <crystal>
   <varray name="basis" >
    <v>       2.71500000       2.71500000       0.00000000 </v>
    <v>       0.00000000       2.71500000       2.71500000 </v>
    <v>       2.71500000       0.00000000       2.71500000 </v>
   </varray>
   <i name="volume">     40.02575175 </i>
   <varray name="rec_basis" >
    <v>       0.18416206       0.18416206      -0.18416206 </v>
    <v>      -0.18416206       0.18416206       0.18416206 </v>
    <v>       0.18416206      -0.18416206       0.18416206 </v>
   </varray>
  </crystal>
  <varray name="positions" >
   <v>       0.00000000       0.00000000       0.00000000 </v>
   <v>       0.25000000       0.25000000       0.25000000 </v>
  </varray>
 </structure>
 <calculation>
  <scstep>
   <time name="dav">    0.07    0.07</time>
   <time name="total">    0.07    0.07</time>
   <energy>
    <i name="alphaZ">      3.36414203 </i>
    <i name="ewald">   -228.56352493 </i>
    <i name="hartreedc">    -11.00108243 </i>
    <i name="XCdc">    -18.60181216 </i>
    <i name="pawpsdc">     65.95520812 </i>
    <i name="pawaedc">    -30.76852678 </i>
    <i name="eentropy">     -0.00000005 </i>
    <i name="bandstr">      4.26238959 </i>
    <i name="atom">    206.12257231 </i>
    <i name="e_fr_energy">     -9.23063430 </i>
    <i name="e_wo_entrp">     -9.23063425 </i>
    <i name="e_0_energy">     -9.23063428 </i>
   </energy>
  </scstep>
  <scstep>
   <time name="dav">    0.11    0.11</time>
   <time name="total">    0.11    0.11</time>
   <energy>
    <i name="e_fr_energy">    -10.83430676 </i>
    <i name="e_wo_entrp">    -10.83430676 </i>
    <i name="e_0_energy">    -10.83430676 </i>
   </energy>
  </scstep>
  <scstep>
   <time name="dav">    0.06    0.06</time>
   <time name="total">    0.06    0.06</time>
   <energy>
    <i name="e_fr_energy">    -10.83544758 </i>
    <i name="e_wo_entrp">    -10.83544758 </i>
    <i name="e_0_energy">    -10.83544758 </i>
   </energy>
  </scstep>
  <scstep>
   <time name="dav">    0.12    0.12</time>
   <time name="total">    0.12    0.12</time>
   <energy>
    <i name="e_fr_energy">    -10.83544801 </i>
    <i name="e_wo_entrp">    -10.83544801 </i>
    <i name="e_0_energy">    -10.83544801 </i>
   </energy>
  </scstep>
  <scstep>
   <time name="dav">    0.05    0.05</time>
   <time name="total">    0.06    0.06</time>
   <energy>
    <i name="e_fr_energy">    -10.83544801 </i>
    <i name="e_wo_entrp">    -10.83544801 </i>
    <i name="e_0_energy">    -10.83544801 </i>
   </energy>
  </scstep>
  <scstep>
   <time name="dav">    0.06    0.06</time>
   <time name="total">    0.07    0.07</time>
   <energy>
    <i name="e_fr_energy">    -10.69522237 </i>
    <i name="e_wo_entrp">    -10.69522237 </i>
    <i name="e_0_energy">    -10.69522237 </i>
   </energy>
  </scstep>
  <scstep>
   <time name="dav">    0.07    0.07</time>
   <time name="total">    0.07    0.07</time>
   <energy>
    <i name="e_fr_energy">    -10.63188631 </i>
    <i name="e_wo_entrp">    -10.63188622 </i>
    <i name="e_0_energy">    -10.63188627 </i>
   </energy>
  </scstep>
  <scstep>
   <time name="dav">    0.06    0.06</time>
   <time name="total">    0.06    0.07</time>
   <energy>
    <i name="e_fr_energy">    -10.63362556 </i>
    <i name="e_wo_entrp">    -10.63362552 </i>
    <i name="e_0_energy">    -10.63362554 </i>
   </energy>
  </scstep>
  <scstep>
   <time name="dav">    0.11    0.11</time>
   <time name="total">    0.11    0.11</time>
   <energy>
    <i name="e_fr_energy">    -10.63375604 </i>
    <i name="e_wo_entrp">    -10.63375601 </i>
    <i name="e_0_energy">    -10.63375602 </i>
   </energy>
  </scstep>
  <scstep>
   <time name="dav">    0.05    0.05</time>
   <time name="total">    0.06    0.06</time>
   <energy>
    <i name="alphaZ">      3.36414203 </i>
    <i name="ewald">   -228.56352493 </i>
    <i name="hartreedc">    -15.23473985 </i>
    <i name="XCdc">    -17.91347054 </i>
    <i name="pawpsdc">     75.26670529 </i>
    <i name="pawaedc">    -40.32059962 </i>
    <i name="eentropy">     -0.00000003 </i>
    <i name="bandstr">      6.64513797 </i>
    <i name="atom">    206.12257231 </i>
    <i name="e_fr_energy">    -10.63377738 </i>
    <i name="e_wo_entrp">    -10.63377735 </i>
    <i name="e_0_energy">    -10.63377736 </i>
   </energy>
  </scstep>
  <structure>
   <crystal>
    <varray name="basis" >
     <v>       2.71500000       2.71500000       0.00000000 </v>
     <v>       0.00000000       2.71500000       2.71500000 </v>
     <v>       2.71500000       0.00000000       2.71500000 </v>
    </varray>
    <i name="volume">     40.02575175 </i>
    <varray name="rec_basis" >
     <v>       0.18416206       0.18416206      -0.18416206 </v>
     <v>      -0.18416206       0.18416206       0.18416206 </v>
     <v>       0.18416206      -0.18416206       0.18416206 </v>
    </varray>
   </crystal>
   <varray name="positions" >
    <v>       0.00000000       0.00000000       0.00000000 </v>
    <v>       0.25000000       0.25000000       0.25000000 </v>
   </varray>
  </structure>
  <varray name="forces" >
   <v>       0.00000000       0.00000000       0.00000000 </v>
   <v>      -0.00000000      -0.00000000      -0.00000000 </v>
  </varray>
  <varray name="stress" >
   <v>      24.26407083       0.00000000      -0.00000000 </v>
   <v>       0.00000000      24.26407083       0.00000000 </v>
   <v>       0.00000000      -0.00000000      24.26407083 </v>
  </varray>
  <energy>
   <i name="e_fr_energy">    -10.63377738 </i>
   <i name="e_wo_entrp">    -10.63377736 </i>
   <i name="e_0_energy">     -0.00000003 </i>
  </energy>
  <time name="totalsc">    0.85    0.86</time>
  <eigenvalues>
   <array>
    <dimension dim="1">band</dimension>
    <dimension dim="2">kpoint</dimension>
    <dimension dim="3">spin</dimension>
    <field>eigene</field>
    <field>occ</field>
    <set>
     <set comment="spin 1">
      <set comment="kpoint 1">
       <r>   -6.0949    1.0000 </r>
       <r>    5.8854    1.0000 </r>
       <r>    5.8854    1.0000 </r>
       <r>    5.8854    1.0000 </r>
       <r>    8.4350    0.0000 </r>
       <r>    8.4350    0.0000 </r>
       <r>    8.4350    0.0000 </r>
       <r>    9.2558    0.0000 </r>
       <r>   13.6497    0.0000 </r>
       <r>   13.6497    0.0000 </r>
       <r>   13.8356    0.0000 </r>
       <r>   17.1314    0.0000 </r>
       <r>   17.1314    0.0000 </r>
       <r>   17.1314    0.0000 </r>
       <r>   21.2858    0.0000 </r>
       <r>   29.2032    0.0000 </r>
       <r>   29.2033    0.0000 </r>
       <r>   29.2033    0.0000 </r>
       <r>   30.3684    0.0000 </r>
       <r>   30.3684    0.0000 </r>
       <r>   31.7828    0.0000 </r>
       <r>   31.7829    0.0000 </r>
       <r>   31.7829    0.0000 </r>
       <r>   35.1089    0.0000 </r>
       <r>   35.1089    0.0000 </r>
       <r>   35.1089    0.0000 </r>
       <r>   41.1830    0.0000 </r>
       <r>   41.1831    0.0000 </r>
      </set>
      <set comment="kpoint 2">
       <r>   -5.2942    1.0000 </r>
       <r>    1.9463    1.0000 </r>
       <r>    5.1187    1.0000 </r>
       <r>    5.1187    1.0000 </r>
       <r>    7.9130    0.0000 </r>
       <r>    9.3832    0.0000 </r>
       <r>    9.3832    0.0000 </r>
       <r>   12.8120    0.0000 </r>
       <r>   13.0989    0.0000 </r>
       <r>   13.0989    0.0000 </r>
       <r>   14.8727    0.0000 </r>
       <r>   17.7390    0.0000 </r>
       <r>   20.5802    0.0000 </r>
       <r>   20.5802    0.0000 </r>
       <r>   23.8057    0.0000 </r>
       <r>   23.8058    0.0000 </r>
       <r>   23.9859    0.0000 </r>
       <r>   25.9786    0.0000 </r>
       <r>   30.1713    0.0000 </r>
       <r>   30.1716    0.0000 </r>
       <r>   32.6747    0.0000 </r>
       <r>   32.6747    0.0000 </r>
       <r>   34.0133    0.0000 </r>
       <r>   35.5476    0.0000 </r>
       <r>   35.8146    0.0000 </r>
       <r>   37.8099    0.0000 </r>
       <r>   37.8100    0.0000 </r>
       <r>   39.6442    0.0000 </r>
      </set>
      <set comment="kpoint 3">
       <r>   -3.7589    1.0000 </r>
       <r>   -1.1034    1.0000 </r>
       <r>    4.6782    1.0000 </r>
       <r>    4.6783    1.0000 </r>
       <r>    7.4218    0.0000 </r>
       <r>    9.2181    0.0000 </r>
       <r>    9.2182    0.0000 </r>
       <r>   13.5991    0.0000 </r>
       <r>   16.5261    0.0000 </r>
       <r>   16.5262    0.0000 </r>
       <r>   17.2457    0.0000 </r>
       <r>   17.2457    0.0000 </r>
       <r>   17.2612    0.0000 </r>
       <r>   18.9099    0.0000 </r>
       <r>   25.4052    0.0000 </r>
       <r>   25.8947    0.0000 </r>
       <r>   27.6237    0.0000 </r>
       <r>   27.6238    0.0000 </r>
       <r>   27.8471    0.0000 </r>
       <r>   27.8473    0.0000 </r>
       <r>   31.7092    0.0000 </r>
       <r>   32.4360    0.0000 </r>
       <r>   32.4362    0.0000 </r>
       <r>   33.5155    0.0000 </r>
       <r>   33.5155    0.0000 </r>
       <r>   34.2210    0.0000 </r>
       <r>   36.8947    0.0000 </r>
       <r>   38.4590    0.0000 </r>
      </set>
      <set comment="kpoint 4">
       <r>   -5.0117    1.0000 </r>
       <r>    2.3631    1.0000 </r>
       <r>    3.9824    1.0000 </r>
       <r>    3.9825    1.0000 </r>
       <r>    7.0028    0.0000 </r>
       <r>    9.0135    0.0000 </r>
       <r>   11.6509    0.0000 </r>
       <r>   11.6510    0.0000 </r>
       <r>   13.9687    0.0000 </r>
       <r>   14.8588    0.0000 </r>
       <r>   17.3191    0.0000 </r>
       <r>   18.9311    0.0000 </r>
       <r>   18.9312    0.0000 </r>
       <r>   19.6463    0.0000 </r>
       <r>   23.3638    0.0000 </r>
       <r>   23.3639    0.0000 </r>
       <r>   24.3396    0.0000 </r>
       <r>   26.3457    0.0000 </r>
       <r>   26.9517    0.0000 </r>
       <r>   30.9781    0.0000 </r>
       <r>   32.4536    0.0000 </r>
       <r>   33.3651    0.0000 </r>
       <r>   33.3652    0.0000 </r>
       <r>   35.4630    0.0000 </r>
       <r>   35.4630    0.0000 </r>
       <r>   35.7851    0.0000 </r>
       <r>   36.3535    0.0000 </r>
       <r>   40.8770    0.0000 </r>
      </set>
      <set comment="kpoint 5">
       <r>   -3.3728    1.0000 </r>
       <r>   -0.5104    1.0000 </r>
       <r>    2.3335    1.0000 </r>
       <r>    3.6662    1.0000 </r>
       <r>    7.3972    0.0000 </r>
       <r>   10.3353    0.0000 </r>
       <r>   11.6392    0.0000 </r>
       <r>   11.8088    0.0000 </r>
       <r>   16.1204    0.0000 </r>
       <r>   16.4762    0.0000 </r>
       <r>   18.1029    0.0000 </r>
       <r>   18.6232    0.0000 </r>
       <r>   18.9339    0.0000 </r>
       <r>   22.7980    0.0000 </r>
       <r>   23.7082    0.0000 </r>
       <r>   24.6196    0.0000 </r>
       <r>   25.2974    0.0000 </r>
       <r>   25.5851    0.0000 </r>
       <r>   25.9136    0.0000 </r>
       <r>   28.8513    0.0000 </r>
       <r>   29.8222    0.0000 </r>
       <r>   31.1676    0.0000 </r>
       <r>   31.5740    0.0000 </r>
       <r>   33.7834    0.0000 </r>
       <r>   35.0757    0.0000 </r>
       <r>   35.3446    0.0000 </r>
       <r>   35.3482    0.0000 </r>
       <r>   37.1522    0.0000 </r>
      </set>
      <set comment="kpoint 6">
       <r>   -4.0482    1.0000 </r>
       <r>    0.3944    1.0000 </r>
       <r>    2.1133    1.0000 </r>
       <r>    4.5473    1.0000 </r>
       <r>    8.3295    0.0000 </r>
       <r>   10.6665    0.0000 </r>
       <r>   11.0398    0.0000 </r>
       <r>   12.0312    0.0000 </r>
       <r>   12.3565    0.0000 </r>
       <r>   15.5407    0.0000 </r>
       <r>   18.5380    0.0000 </r>
       <r>   19.1429    0.0000 </r>
       <r>   19.3549    0.0000 </r>
       <r>   22.5982    0.0000 </r>
       <r>   23.0948    0.0000 </r>
       <r>   23.4376    0.0000 </r>
       <r>   24.6749    0.0000 </r>
       <r>   27.3037    0.0000 </r>
       <r>   27.6312    0.0000 </r>
       <r>   29.9741    0.0000 </r>
       <r>   30.7186    0.0000 </r>
       <r>   31.2981    0.0000 </r>
       <r>   32.8044    0.0000 </r>
       <r>   33.0274    0.0000 </r>
       <r>   33.8711    0.0000 </r>
       <r>   35.2476    0.0000 </r>
       <r>   36.4064    0.0000 </r>
       <r>   37.1794    0.0000 </r>
      </set>
      <set comment="kpoint 7">
       <r>   -1.9448    1.0000 </r>
       <r>   -1.9448    1.0000 </r>
       <r>    3.0166    1.0000 </r>
       <r>    3.0166    1.0000 </r>
       <r>    6.5860    0.0000 </r>
       <r>    6.5861    0.0000 </r>
       <r>   16.0019    0.0000 </r>
       <r>   16.0020    0.0000 </r>
       <r>   16.9604    0.0000 </r>
       <r>   16.9604    0.0000 </r>
       <r>   18.4834    0.0000 </r>
       <r>   18.4834    0.0000 </r>
       <r>   18.9564    0.0000 </r>
       <r>   18.9564    0.0000 </r>
       <r>   24.8529    0.0000 </r>
       <r>   24.8529    0.0000 </r>
       <r>   25.6591    0.0000 </r>
       <r>   25.6591    0.0000 </r>
       <r>   26.1113    0.0000 </r>
       <r>   26.1113    0.0000 </r>
       <r>   27.4233    0.0000 </r>
       <r>   27.4233    0.0000 </r>
       <r>   31.7009    0.0000 </r>
       <r>   31.7011    0.0000 </r>
       <r>   35.4615    0.0000 </r>
       <r>   35.4616    0.0000 </r>
       <r>   40.1385    0.0000 </r>
       <r>   40.1386    0.0000 </r>
      </set>
      <set comment="kpoint 8">
       <r>   -1.7799    1.0000 </r>
       <r>   -1.7798    1.0000 </r>
       <r>    2.0117    1.0000 </r>
       <r>    2.0118    1.0000 </r>
       <r>   10.1589    0.0000 </r>
       <r>   10.1589    0.0000 </r>
       <r>   10.8823    0.0000 </r>
       <r>   10.8823    0.0000 </r>
       <r>   16.5046    0.0000 </r>
       <r>   16.5046    0.0000 </r>
       <r>   18.9534    0.0000 </r>
       <r>   18.9534    0.0000 </r>
       <r>   22.3793    0.0000 </r>
       <r>   22.3794    0.0000 </r>
       <r>   24.4760    0.0000 </r>
       <r>   24.4760    0.0000 </r>
       <r>   24.9275    0.0000 </r>
       <r>   24.9276    0.0000 </r>
       <r>   25.8516    0.0000 </r>
       <r>   25.8516    0.0000 </r>
       <r>   29.6647    0.0000 </r>
       <r>   29.6648    0.0000 </r>
       <r>   33.4195    0.0000 </r>
       <r>   33.4195    0.0000 </r>
       <r>   33.5623    0.0000 </r>
       <r>   33.5623    0.0000 </r>
       <r>   35.3409    0.0000 </r>
       <r>   35.3409    0.0000 </r>
      </set>
     </set>
    </set>
   </array>
  </eigenvalues>
  <separator name="orbital magnetization" >
   <v name="MAGDIPOLOUT">      0.00000000      0.00000000      0.00000000</v>
  </separator>
  <dos>
   <i name="efermi">      6.23097304 </i>
   <total>
    <array>
     <dimension dim="1">gridpoints</dimension>
     <dimension dim="2">spin</dimension>
     <field>energy</field>
     <field>total</field>
     <field>integrated</field>
     <set>
      <set comment="spin 1">
       <r>    -8.4588     0.0000     0.0000 </r>
       <r>    -8.2855     0.0000     0.0000 </r>
       <r>    -8.1121     0.0000     0.0000 </r>
       <r>    -7.9388     0.0000     0.0000 </r>
       <r>    -7.7654     0.0000     0.0000 </r>
       <r>    -7.5921     0.0000     0.0000 </r>
       <r>    -7.4187     0.0000     0.0000 </r>
       <r>    -7.2454     0.0000     0.0000 </r>
       <r>    -7.0720     0.0000     0.0000 </r>
       <r>    -6.8987     0.0000     0.0000 </r>
       <r>    -6.7253     0.0000     0.0000 </r>
       <r>    -6.5520     0.0000     0.0000 </r>
       <r>    -6.3786     0.0000     0.0000 </r>
       <r>    -6.2053     0.0107     0.0019 </r>
       <r>    -6.0319     0.1360     0.0254 </r>
       <r>    -5.8585     0.0335     0.0312 </r>
       <r>    -5.6852     0.0001     0.0313 </r>
       <r>    -5.5118     0.0015     0.0315 </r>
       <r>    -5.3385     0.3818     0.0977 </r>
       <r>    -5.1651     1.0262     0.2756 </r>
       <r>    -4.9918     0.6933     0.3958 </r>
       <r>    -4.8184     0.4177     0.4682 </r>
       <r>    -4.6451     0.0034     0.4687 </r>
       <r>    -4.4717     0.0000     0.4688 </r>
       <r>    -4.2984     0.0004     0.4688 </r>
       <r>    -4.1250     0.2995     0.5208 </r>
       <r>    -3.9517     1.6793     0.8119 </r>
       <r>    -3.7783     0.4663     0.8927 </r>
       <r>    -3.6050     0.4302     0.9673 </r>
       <r>    -3.4316     0.8852     1.1207 </r>
       <r>    -3.2583     3.2217     1.6792 </r>
       <r>    -3.0849     0.2278     1.7187 </r>
       <r>    -2.9116     0.0001     1.7187 </r>
       <r>    -2.7382     0.0000     1.7188 </r>
       <r>    -2.5648     0.0000     1.7188 </r>
       <r>    -2.3915     0.0000     1.7188 </r>
       <r>    -2.2181     0.0001     1.7188 </r>
       <r>    -2.0448     0.0852     1.7335 </r>
       <r>    -1.8714     1.0455     1.9148 </r>
       <r>    -1.6981     1.8460     2.2348 </r>
       <r>    -1.5247     0.2677     2.2812 </r>
       <r>    -1.3514     0.0005     2.2813 </r>
       <r>    -1.1780     0.1048     2.2994 </r>
       <r>    -1.0047     0.5575     2.3961 </r>
       <r>    -0.8313     0.0587     2.4062 </r>
       <r>    -0.6580     0.0798     2.4201 </r>
       <r>    -0.4846     2.6987     2.8879 </r>
       <r>    -0.3113     1.5374     3.1544 </r>
       <r>    -0.1379     0.0105     3.1562 </r>
       <r>     0.0354     0.0000     3.1563 </r>
       <r>     0.2088     0.0094     3.1579 </r>
       <r>     0.3822     0.9229     3.3179 </r>
       <r>     0.5555     1.2063     3.5270 </r>
       <r>     0.7289     0.0246     3.5312 </r>
       <r>     0.9022     0.0000     3.5312 </r>
       <r>     1.0756     0.0000     3.5312 </r>
       <r>     1.2489     0.0000     3.5312 </r>
       <r>     1.4223     0.0000     3.5313 </r>
       <r>     1.5956     0.0000     3.5313 </r>
       <r>     1.7690     0.0094     3.5329 </r>
       <r>     1.9423     1.0491     3.7147 </r>
       <r>     2.1157     3.4974     4.3210 </r>
       <r>     2.2890     2.5034     4.7550 </r>
       <r>     2.4624     3.8827     5.4281 </r>
       <r>     2.6357     0.2345     5.4687 </r>
       <r>     2.8091     0.0019     5.4691 </r>
       <r>     2.9824     0.3385     5.5277 </r>
       <r>     3.1558     0.7148     5.6517 </r>
       <r>     3.3291     0.0265     5.6562 </r>
       <r>     3.5025     0.0446     5.6640 </r>
       <r>     3.6759     2.3540     6.0720 </r>
       <r>     3.8492     1.9714     6.4138 </r>
       <r>     4.0226     1.5026     6.6743 </r>
       <r>     4.1959     0.6144     6.7808 </r>
       <r>     4.3693     0.0155     6.7835 </r>
       <r>     4.5426     1.0517     6.9658 </r>
       <r>     4.7160     2.0943     7.3288 </r>
       <r>     4.8893     0.4462     7.4062 </r>
       <r>     5.0627     0.6174     7.5132 </r>
       <r>     5.2360     2.1271     7.8820 </r>
       <r>     5.4094     0.1401     7.9062 </r>
       <r>     5.5827     0.0001     7.9063 </r>
       <r>     5.7561     0.0182     7.9094 </r>
       <r>     5.9294     0.3783     7.9750 </r>
       <r>     6.1028     0.1438     7.9999 </r>
       <r>     6.2761     0.0006     8.0000 </r>
       <r>     6.4495     0.0289     8.0050 </r>
       <r>     6.6229     0.7268     8.1310 </r>
       <r>     6.7962     0.3262     8.1875 </r>
       <r>     6.9696     0.3447     8.2473 </r>
       <r>     7.1429     0.7117     8.3707 </r>
       <r>     7.3163     0.6196     8.4781 </r>
       <r>     7.4896     3.9174     9.1572 </r>
       <r>     7.6630     0.5353     9.2499 </r>
       <r>     7.8363     0.2011     9.2848 </r>
       <r>     8.0097     1.1178     9.4786 </r>
       <r>     8.1830     0.1650     9.5072 </r>
       <r>     8.3564     1.4322     9.7555 </r>
       <r>     8.5297     1.1766     9.9594 </r>
       <r>     8.7031     0.0538     9.9687 </r>
       <r>     8.8764     0.0284     9.9737 </r>
       <r>     9.0498     0.7370    10.1014 </r>
       <r>     9.2231     1.1682    10.3040 </r>
       <r>     9.3965     2.4150    10.7226 </r>
       <r>     9.5699     1.2277    10.9354 </r>
       <r>     9.7432     0.0120    10.9375 </r>
       <r>     9.9166     0.0007    10.9376 </r>
       <r>    10.0899     0.3565    10.9994 </r>
       <r>    10.2633     2.3214    11.4018 </r>
       <r>    10.4366     3.4836    12.0057 </r>
       <r>    10.6100     0.7864    12.1420 </r>
       <r>    10.7833     1.7730    12.4494 </r>
       <r>    10.9567     2.0370    12.8025 </r>
       <r>    11.1300     2.0018    13.1495 </r>
       <r>    11.3034     0.2188    13.1875 </r>
       <r>    11.4767     0.0618    13.1982 </r>
       <r>    11.6501     3.4919    13.8035 </r>
       <r>    11.8234     5.4208    14.7432 </r>
       <r>    11.9968     2.5021    15.1770 </r>
       <r>    12.1701     1.4584    15.4298 </r>
       <r>    12.3435     0.9686    15.5977 </r>
       <r>    12.5168     1.2138    15.8081 </r>
       <r>    12.6902     0.0865    15.8231 </r>
       <r>    12.8636     1.0461    16.0045 </r>
       <r>    13.0369     0.8824    16.1574 </r>
       <r>    13.2103     2.1703    16.5337 </r>
       <r>    13.3836     0.1671    16.5626 </r>
       <r>    13.5570     0.2320    16.6029 </r>
       <r>    13.7303     0.7928    16.7403 </r>
       <r>    13.9037     0.3994    16.8095 </r>
       <r>    14.0770     0.8505    16.9570 </r>
       <r>    14.2504     0.0679    16.9687 </r>
       <r>    14.4237     0.0000    16.9688 </r>
       <r>    14.5971     0.0002    16.9688 </r>
       <r>    14.7704     0.2210    17.0071 </r>
       <r>    14.9438     1.9516    17.3454 </r>
       <r>    15.1171     0.3504    17.4062 </r>
       <r>    15.2905     0.0010    17.4063 </r>
       <r>    15.4638     0.2994    17.4582 </r>
       <r>    15.6372     1.6771    17.7489 </r>
       <r>    15.8106     0.1899    17.7819 </r>
       <r>    15.9839     0.5444    17.8762 </r>
       <r>    16.1573     3.5432    18.4905 </r>
       <r>    16.3306     1.4150    18.7358 </r>
       <r>    16.5040     4.3425    19.4885 </r>
       <r>    16.6773     3.4423    20.0853 </r>
       <r>    16.8507     0.1142    20.1051 </r>
       <r>    17.0240     0.8536    20.2531 </r>
       <r>    17.1974     1.1430    20.4512 </r>
       <r>    17.3707     2.4542    20.8766 </r>
       <r>    17.5441     0.3545    20.9381 </r>
       <r>    17.7174     0.5450    21.0326 </r>
       <r>    17.8908     0.8767    21.1845 </r>
       <r>    18.0641     1.2791    21.4063 </r>
       <r>    18.2375     2.9414    21.9162 </r>
       <r>    18.4108     0.3719    21.9806 </r>
       <r>    18.5842     3.6156    22.6074 </r>
       <r>    18.7575     3.6432    23.2390 </r>
       <r>    18.9309     4.8806    24.0850 </r>
       <r>    19.1043     6.1639    25.1536 </r>
       <r>    19.2776     1.8734    25.4783 </r>
       <r>    19.4510     1.7424    25.7804 </r>
       <r>    19.6243     0.5937    25.8833 </r>
       <r>    19.7977     0.6558    25.9970 </r>
       <r>    19.9710     0.0175    26.0000 </r>
       <r>    20.1444     0.0000    26.0000 </r>
       <r>    20.3177     0.0003    26.0001 </r>
       <r>    20.4911     0.2989    26.0519 </r>
       <r>    20.6644     2.2481    26.4416 </r>
       <r>    20.8378     0.3366    26.4999 </r>
       <r>    21.0111     0.0004    26.5000 </r>
       <r>    21.1845     0.0137    26.5024 </r>
       <r>    21.3578     0.1388    26.5264 </r>
       <r>    21.5312     0.0277    26.5312 </r>
       <r>    21.7045     0.0000    26.5312 </r>
       <r>    21.8779     0.0000    26.5313 </r>
       <r>    22.0513     0.0000    26.5313 </r>
       <r>    22.2246     0.0310    26.5366 </r>
       <r>    22.3980     1.2801    26.7585 </r>
       <r>    22.5713     1.6089    27.0374 </r>
       <r>    22.7447     2.3405    27.4432 </r>
       <r>    22.9180     3.2121    28.0000 </r>
       <r>    23.0914     1.2198    28.2114 </r>
       <r>    23.2647     1.2959    28.4361 </r>
       <r>    23.4381     2.7611    28.9147 </r>
       <r>    23.6114     1.7565    29.2192 </r>
       <r>    23.7848     4.4692    29.9940 </r>
       <r>    23.9581     2.8335    30.4852 </r>
       <r>    24.1315     0.9602    30.6516 </r>
       <r>    24.3048     0.3805    30.7176 </r>
       <r>    24.4782     1.9137    31.0493 </r>
       <r>    24.6515     4.6858    31.8616 </r>
       <r>    24.8249     3.2696    32.4284 </r>
       <r>    24.9983     2.3919    32.8430 </r>
       <r>    25.1716     0.5271    32.9344 </r>
       <r>    25.3450     3.2231    33.4932 </r>
       <r>    25.5183     2.3896    33.9074 </r>
       <r>    25.6917     4.0772    34.6142 </r>
       <r>    25.8650     3.2307    35.1742 </r>
       <r>    26.0384     5.7096    36.1640 </r>
       <r>    26.2117     1.3439    36.3970 </r>
       <r>    26.3851     0.8226    36.5396 </r>
       <r>    26.5584     0.3110    36.5935 </r>
       <r>    26.7318     0.0024    36.5939 </r>
       <r>    26.9051     0.2749    36.6416 </r>
       <r>    27.0785     0.7678    36.7747 </r>
       <r>    27.2518     0.5473    36.8696 </r>
       <r>    27.4252     2.1207    37.2372 </r>
       <r>    27.5985     1.8243    37.5534 </r>
       <r>    27.7719     2.5260    37.9913 </r>
       <r>    27.9452     1.1925    38.1980 </r>
       <r>    28.1186     0.1194    38.2187 </r>
       <r>    28.2920     0.0001    38.2187 </r>
       <r>    28.4653     0.0000    38.2188 </r>
       <r>    28.6387     0.0057    38.2197 </r>
       <r>    28.8120     1.2460    38.4357 </r>
       <r>    28.9854     2.9500    38.9471 </r>
       <r>    29.1587     0.2677    38.9935 </r>
       <r>    29.3321     0.3793    39.0593 </r>
       <r>    29.5054     0.0448    39.0671 </r>
       <r>    29.6788     1.3179    39.2955 </r>
       <r>    29.8521     3.7748    39.9499 </r>
       <r>    30.0255     3.0757    40.4831 </r>
       <r>    30.1988     2.3358    40.8880 </r>
       <r>    30.3722     1.1882    41.0940 </r>
       <r>    30.5455     0.1924    41.1273 </r>
       <r>    30.7189     1.0720    41.3132 </r>
       <r>    30.8922     1.1844    41.5185 </r>
       <r>    31.0656     1.1818    41.7234 </r>
       <r>    31.2390     3.8779    42.3956 </r>
       <r>    31.4123     2.3368    42.8007 </r>
       <r>    31.5857     2.6002    43.2515 </r>
       <r>    31.7590     3.3804    43.8375 </r>
       <r>    31.9324     0.7469    43.9669 </r>
       <r>    32.1057     0.0105    43.9688 </r>
       <r>    32.2791     0.0263    43.9733 </r>
       <r>    32.4524     1.3620    44.2094 </r>
       <r>    32.6258     1.8397    44.5283 </r>
       <r>    32.7991     3.0859    45.0633 </r>
       <r>    32.9725     1.7115    45.3600 </r>
       <r>    33.1458     1.6097    45.6390 </r>
       <r>    33.3192     0.8302    45.7829 </r>
       <r>    33.4925     4.0796    46.4901 </r>
       <r>    33.6659     3.1547    47.0370 </r>
       <r>    33.8392     4.0784    47.7440 </r>
       <r>    34.0126     3.0431    48.2716 </r>
       <r>    34.1859     0.9902    48.4432 </r>
       <r>    34.3593     0.4897    48.5281 </r>
       <r>    34.5327     0.0182    48.5312 </r>
       <r>    34.7060     0.0000    48.5313 </r>
       <r>    34.8794     0.0122    48.5334 </r>
       <r>    35.0527     1.7215    48.8318 </r>
       <r>    35.2261     4.3570    49.5871 </r>
       <r>    35.3994     9.9486    51.3117 </r>
       <r>    35.5728     5.7754    52.3129 </r>
       <r>    35.7461     1.2696    52.5330 </r>
       <r>    35.9195     1.8424    52.8524 </r>
       <r>    36.0928     0.1306    52.8750 </r>
       <r>    36.2662     0.1685    52.9042 </r>
       <r>    36.4395     2.2638    53.2967 </r>
       <r>    36.6129     0.8086    53.4368 </r>
       <r>    36.7862     0.0489    53.4453 </r>
       <r>    36.9596     0.5626    53.5428 </r>
       <r>    37.1329     2.3647    53.9528 </r>
       <r>    37.3063     4.0963    54.6629 </r>
       <r>    37.4797     0.1420    54.6875 </r>
       <r>    37.6530     0.0382    54.6941 </r>
       <r>    37.8264     1.6690    54.9834 </r>
       <r>    37.9997     1.1666    55.1857 </r>
       <r>    38.1731     0.0105    55.1875 </r>
       <r>    38.3464     0.0402    55.1945 </r>
       <r>    38.5198     0.5403    55.2881 </r>
       <r>    38.6931     0.1402    55.3124 </r>
       <r>    38.8665     0.0003    55.3125 </r>
       <r>    39.0398     0.0000    55.3125 </r>
       <r>    39.2132     0.0000    55.3125 </r>
       <r>    39.3865     0.0002    55.3125 </r>
       <r>    39.5599     0.1681    55.3417 </r>
       <r>    39.7332     1.1241    55.5365 </r>
       <r>    39.9066     0.1502    55.5626 </r>
       <r>    40.0799     0.2198    55.6007 </r>
       <r>    40.2533     0.8048    55.7402 </r>
       <r>    40.4267     0.0566    55.7500 </r>
       <r>    40.6000     0.0001    55.7500 </r>
       <r>    40.7734     0.0770    55.7634 </r>
       <r>    40.9467     0.8292    55.9071 </r>
       <r>    41.1201     0.2423    55.9491 </r>
       <r>    41.2934     0.2722    55.9963 </r>
       <r>    41.4668     0.0214    56.0000 </r>
       <r>    41.6401     0.0000    56.0000 </r>
       <r>    41.8135     0.0000    56.0000 </r>
       <r>    41.9868     0.0000    56.0000 </r>
       <r>    42.1602     0.0000    56.0000 </r>
       <r>    42.3335     0.0000    56.0000 </r>
       <r>    42.5069     0.0000    56.0000 </r>
       <r>    42.6802     0.0000    56.0000 </r>
       <r>    42.8536     0.0000    56.0000 </r>
       <r>    43.0269     0.0000    56.0000 </r>
       <r>    43.2003     0.0000    56.0000 </r>
       <r>    43.3736     0.0000    56.0000 </r>
       <r>    43.5470     0.0000    56.0000 </r>
      </set>
     </set>
    </array>
   </total>
  </dos>
 </calculation>
 <structure name="finalpos" >
  <crystal>
   <varray name="basis" >
    <v>       2.71500000       2.71500000       0.00000000 </v>
    <v>       0.00000000       2.71500000       2.71500000 </v>
    <v>       2.71500000       0.00000000       2.71500000 </v>
   </varray>
   <i name="volume">     40.02575175 </i>
   <varray name="rec_basis" >
    <v>       0.18416206       0.18416206      -0.18416206 </v>
    <v>      -0.18416206       0.18416206       0.18416206 </v>
    <v>       0.18416206      -0.18416206       0.18416206 </v>
   </varray>
  </crystal>
  <varray name="positions" >
   <v>       0.00000000       0.00000000       0.00000000 </v>
   <v>       0.25000000       0.25000000       0.25000000 </v>
  </varray>
 </structure>
</modeling>
