   2   2   0   0
  0.2001288E+02  0.3839590E-09  0.3839590E-09  0.3839590E-09  0.5000000E-15
  1.000000000000000E-004
  CAR 
 Si                                      
     18.26232928     -9.02029553  301      5.98656909      1.00000000
     -9.020  0.0000E+00  0.0000E+00
     -8.929  0.0000E+00  0.0000E+00
     -8.838  0.0000E+00  0.0000E+00
     -8.747  0.0000E+00  0.0000E+00
     -8.657  0.0000E+00  0.0000E+00
     -8.566  0.0000E+00  0.0000E+00
     -8.475  0.0000E+00  0.0000E+00
     -8.384  0.0000E+00  0.0000E+00
     -8.293  0.7212E-13  0.6559E-14
     -8.202  0.4257E-09  0.3872E-10
     -8.111  0.5003E-06  0.4553E-07
     -8.020  0.1193E-03  0.1089E-04
     -7.929  0.5950E-02  0.5520E-03
     -7.838  0.6491E-01  0.6455E-02
     -7.747  0.1627E+00  0.2125E-01
     -7.656  0.9631E-01  0.3001E-01
     -7.565  0.1325E-01  0.3121E-01
     -7.474  0.4040E-03  0.3125E-01
     -7.383  0.2605E-05  0.3125E-01
     -7.292  0.2640E-07  0.3125E-01
     -7.201  0.1811E-04  0.3125E-01
     -7.111  0.2917E-02  0.3152E-01
     -7.020  0.9923E-01  0.4054E-01
     -6.929  0.7475E+00  0.1085E+00
     -6.838  0.1307E+01  0.2274E+00
     -6.747  0.5585E+00  0.2782E+00
     -6.656  0.3238E+00  0.3076E+00
     -6.565  0.9134E+00  0.3907E+00
     -6.474  0.7198E+00  0.4562E+00
     -6.383  0.1328E+00  0.4682E+00
     -6.292  0.5490E-02  0.4687E+00
     -6.201  0.4839E-04  0.4687E+00
     -6.110  0.8766E-07  0.4687E+00
     -6.019  0.3295E-10  0.4688E+00
     -5.928  0.6160E-08  0.4688E+00
     -5.837  0.6967E-05  0.4688E+00
     -5.746  0.1600E-02  0.4689E+00
     -5.655  0.7692E-01  0.4759E+00
     -5.564  0.8097E+00  0.5495E+00
     -5.474  0.1961E+01  0.7278E+00
     -5.383  0.1125E+01  0.8302E+00
     -5.292  0.2393E+00  0.8519E+00
     -5.201  0.4882E+00  0.8963E+00
     -5.110  0.6057E+00  0.9514E+00
     -5.019  0.1795E+00  0.9677E+00
     -4.928  0.7359E-01  0.9744E+00
     -4.837  0.9814E+00  0.1064E+01
     -4.746  0.3550E+01  0.1386E+01
     -4.655  0.3023E+01  0.1661E+01
     -4.564  0.6032E+00  0.1716E+01
     -4.473  0.2703E-01  0.1719E+01
     -4.382  0.2589E-03  0.1719E+01
     -4.291  0.5105E-06  0.1719E+01
     -4.200  0.2022E-09  0.1719E+01
     -4.109  0.1648E-13  0.1719E+01
     -4.018  0.0000E+00  0.1719E+01
     -3.928  0.0000E+00  0.1719E+01
     -3.837  0.0000E+00  0.1719E+01
     -3.746  0.1145E-15  0.1719E+01
     -3.655  0.2719E-11  0.1719E+01
     -3.564  0.1167E-07  0.1719E+01
     -3.473  0.9996E-05  0.1719E+01
     -3.382  0.1747E-02  0.1719E+01
     -3.291  0.6436E-01  0.1725E+01
     -3.200  0.5268E+00  0.1773E+01
     -3.109  0.1111E+01  0.1874E+01
     -3.018  0.1471E+01  0.2007E+01
     -2.927  0.2020E+01  0.2191E+01
     -2.836  0.8948E+00  0.2273E+01
     -2.745  0.9329E-01  0.2281E+01
     -2.654  0.2139E-02  0.2281E+01
     -2.563  0.1076E-04  0.2281E+01
     -2.472  0.1610E-03  0.2281E+01
     -2.382  0.1135E-01  0.2282E+01
     -2.291  0.1732E+00  0.2298E+01
     -2.200  0.6008E+00  0.2353E+01
     -2.109  0.4910E+00  0.2397E+01
     -2.018  0.9392E-01  0.2406E+01
     -1.927  0.4029E-02  0.2406E+01
     -1.836  0.2697E-03  0.2406E+01
     -1.745  0.2505E-01  0.2409E+01
     -1.654  0.5760E+00  0.2461E+01
     -1.563  0.2971E+01  0.2731E+01
     -1.472  0.3588E+01  0.3057E+01
     -1.381  0.1020E+01  0.3150E+01
     -1.290  0.6597E-01  0.3156E+01
     -1.199  0.9221E-03  0.3156E+01
     -1.108  0.2674E-05  0.3156E+01
     -1.017  0.1591E-08  0.3156E+01
     -0.926  0.8403E-07  0.3156E+01
     -0.836  0.5461E-04  0.3156E+01
     -0.745  0.7273E-02  0.3157E+01
     -0.654  0.2056E+00  0.3176E+01
     -0.563  0.1295E+01  0.3293E+01
     -0.472  0.1903E+01  0.3466E+01
     -0.381  0.6594E+00  0.3526E+01
     -0.290  0.5229E-01  0.3531E+01
     -0.199  0.9023E-03  0.3531E+01
     -0.108  0.3246E-05  0.3531E+01
     -0.017  0.2364E-08  0.3531E+01
      0.074  0.3424E-12  0.3531E+01
      0.165  0.0000E+00  0.3531E+01
      0.256  0.0000E+00  0.3531E+01
      0.347  0.0000E+00  0.3531E+01
      0.438  0.0000E+00  0.3531E+01
      0.529  0.0000E+00  0.3531E+01
      0.620  0.0000E+00  0.3531E+01
      0.711  0.1786E-11  0.3531E+01
      0.801  0.8676E-08  0.3531E+01
      0.892  0.8420E-05  0.3531E+01
      0.983  0.1672E-02  0.3531E+01
      1.074  0.7148E-01  0.3538E+01
      1.165  0.7383E+00  0.3605E+01
      1.256  0.2336E+01  0.3818E+01
      1.347  0.3215E+01  0.4110E+01
      1.438  0.2882E+01  0.4372E+01
      1.529  0.1781E+01  0.4534E+01
      1.620  0.2678E+01  0.4778E+01
      1.711  0.4937E+01  0.5227E+01
      1.802  0.2386E+01  0.5444E+01
      1.893  0.2704E+00  0.5468E+01
      1.984  0.6859E-02  0.5469E+01
      2.075  0.1832E-03  0.5469E+01
      2.166  0.1199E-01  0.5470E+01
      2.257  0.2123E+00  0.5489E+01
      2.347  0.8504E+00  0.5566E+01
      2.438  0.8010E+00  0.5639E+01
      2.529  0.1770E+00  0.5655E+01
      2.620  0.8820E-02  0.5656E+01
      2.711  0.9591E-04  0.5656E+01
      2.802  0.6460E-03  0.5656E+01
      2.893  0.5150E-01  0.5661E+01
      2.984  0.8849E+00  0.5741E+01
      3.075  0.3445E+01  0.6055E+01
      3.166  0.3155E+01  0.6342E+01
      3.257  0.7059E+00  0.6406E+01
      3.348  0.5013E+00  0.6451E+01
      3.439  0.1752E+01  0.6611E+01
      3.530  0.1542E+01  0.6751E+01
      3.621  0.3179E+00  0.6780E+01
      3.712  0.1475E-01  0.6781E+01
      3.803  0.1623E-02  0.6781E+01
      3.893  0.7305E-01  0.6788E+01
      3.984  0.8011E+00  0.6861E+01
      4.075  0.2214E+01  0.7062E+01
      4.166  0.2248E+01  0.7267E+01
      4.257  0.1258E+01  0.7381E+01
      4.348  0.2633E+00  0.7405E+01
      4.439  0.1754E-01  0.7407E+01
      4.530  0.1503E+00  0.7420E+01
      4.621  0.1309E+01  0.7539E+01
      4.712  0.2638E+01  0.7779E+01
      4.803  0.1256E+01  0.7893E+01
      4.894  0.1382E+00  0.7906E+01
      4.985  0.3344E-02  0.7906E+01
      5.076  0.1702E-04  0.7906E+01
      5.167  0.6335E-05  0.7906E+01
      5.258  0.1037E-02  0.7906E+01
      5.349  0.3596E-01  0.7910E+01
      5.439  0.2759E+00  0.7935E+01
      5.530  0.4911E+00  0.7979E+01
      5.621  0.2065E+00  0.7998E+01
      5.712  0.1999E-01  0.8000E+01
      5.803  0.4238E-03  0.8000E+01
      5.894  0.1882E-05  0.8000E+01
      5.985  0.1698E-08  0.8000E+01
      6.076  0.3051E-12  0.8000E+01
      6.167  0.0000E+00  0.8000E+01
      6.258  0.2289E-14  0.8000E+01
      6.349  0.3181E-10  0.8000E+01
      6.440  0.8753E-07  0.8000E+01
      6.531  0.4834E-04  0.8000E+01
      6.622  0.5485E-02  0.8001E+01
      6.713  0.1328E+00  0.8013E+01
      6.804  0.7196E+00  0.8078E+01
      6.895  0.9124E+00  0.8161E+01
      6.986  0.2727E+00  0.8186E+01
      7.076  0.2343E-01  0.8188E+01
      7.167  0.1239E+00  0.8199E+01
      7.258  0.6994E+00  0.8263E+01
      7.349  0.9248E+00  0.8347E+01
      7.440  0.2899E+00  0.8373E+01
      7.531  0.1170E+00  0.8384E+01
      7.622  0.1273E+01  0.8500E+01
      7.713  0.3942E+01  0.8858E+01
      7.804  0.3259E+01  0.9155E+01
      7.895  0.9330E+00  0.9239E+01
      7.986  0.1120E+00  0.9250E+01
      8.077  0.5579E-02  0.9250E+01
      8.168  0.5817E-01  0.9255E+01
      8.259  0.5758E+00  0.9308E+01
      8.350  0.1314E+01  0.9427E+01
      8.441  0.7089E+00  0.9492E+01
      8.532  0.1077E+00  0.9502E+01
      8.622  0.3744E+00  0.9536E+01
      8.713  0.1660E+01  0.9687E+01
      8.804  0.1939E+01  0.9863E+01
      8.895  0.8992E+00  0.9945E+01
      8.986  0.2419E+00  0.9967E+01
      9.077  0.2281E-01  0.9969E+01
      9.168  0.1074E-02  0.9969E+01
      9.259  0.3045E-01  0.9972E+01
      9.350  0.3580E+00  0.1000E+02
      9.441  0.9687E+00  0.1009E+02
      9.532  0.7326E+00  0.1016E+02
      9.623  0.9062E+00  0.1024E+02
      9.714  0.1461E+01  0.1037E+02
      9.805  0.1899E+01  0.1055E+02
      9.896  0.2820E+01  0.1080E+02
      9.987  0.1320E+01  0.1092E+02
     10.078  0.1510E+00  0.1094E+02
     10.168  0.4099E-02  0.1094E+02
     10.259  0.7338E-04  0.1094E+02
     10.350  0.6539E-02  0.1094E+02
     10.441  0.1923E+00  0.1096E+02
     10.532  0.1260E+01  0.1107E+02
     10.623  0.2001E+01  0.1125E+02
     10.714  0.1847E+01  0.1142E+02
     10.805  0.3758E+01  0.1176E+02
     10.896  0.2794E+01  0.1202E+02
     10.987  0.4926E+00  0.1206E+02
     11.078  0.3419E-01  0.1206E+02
     11.169  0.3185E+00  0.1209E+02
     11.260  0.1545E+01  0.1223E+02
     11.351  0.1894E+01  0.1241E+02
     11.442  0.2021E+01  0.1259E+02
     11.533  0.3927E+01  0.1295E+02
     11.624  0.2319E+01  0.1316E+02
     11.714  0.3214E+00  0.1319E+02
     11.805  0.9914E-02  0.1319E+02
     11.896  0.6534E-04  0.1319E+02
     11.987  0.2545E-03  0.1319E+02
     12.078  0.2995E-01  0.1319E+02
     12.169  0.7522E+00  0.1326E+02
     12.260  0.4294E+01  0.1365E+02
     12.351  0.6644E+01  0.1425E+02
     12.442  0.5379E+01  0.1474E+02
     12.533  0.3013E+01  0.1502E+02
     12.624  0.1069E+01  0.1511E+02
     12.715  0.1848E+01  0.1528E+02
     12.806  0.1437E+01  0.1541E+02
     12.897  0.2642E+00  0.1544E+02
     12.988  0.1089E-01  0.1544E+02
     13.079  0.9564E-04  0.1544E+02
     13.170  0.5751E-06  0.1544E+02
     13.261  0.1675E-03  0.1544E+02
     13.351  0.1440E-01  0.1544E+02
     13.442  0.2662E+00  0.1546E+02
     13.533  0.1112E+01  0.1556E+02
     13.624  0.1092E+01  0.1566E+02
     13.715  0.2516E+00  0.1569E+02
     13.806  0.1309E-01  0.1569E+02
     13.897  0.5818E-03  0.1569E+02
     13.988  0.2239E-01  0.1569E+02
     14.079  0.2514E+00  0.1571E+02
     14.170  0.6481E+00  0.1577E+02
     14.261  0.3946E+00  0.1581E+02
     14.352  0.5586E-01  0.1581E+02
     14.443  0.1755E-02  0.1581E+02
     14.534  0.1167E-04  0.1581E+02
     14.625  0.1586E-07  0.1581E+02
     14.716  0.4312E-11  0.1581E+02
     14.807  0.3052E-15  0.1581E+02
     14.897  0.0000E+00  0.1581E+02
     14.988  0.0000E+00  0.1581E+02
     15.079  0.0000E+00  0.1581E+02
     15.170  0.0000E+00  0.1581E+02
     15.261  0.0000E+00  0.1581E+02
     15.352  0.0000E+00  0.1581E+02
     15.443  0.0000E+00  0.1581E+02
     15.534  0.0000E+00  0.1581E+02
     15.625  0.0000E+00  0.1581E+02
     15.716  0.0000E+00  0.1581E+02
     15.807  0.0000E+00  0.1581E+02
     15.898  0.0000E+00  0.1581E+02
     15.989  0.0000E+00  0.1581E+02
     16.080  0.0000E+00  0.1581E+02
     16.171  0.0000E+00  0.1581E+02
     16.262  0.0000E+00  0.1581E+02
     16.353  0.0000E+00  0.1581E+02
     16.443  0.4578E-15  0.1581E+02
     16.534  0.8361E-11  0.1581E+02
     16.625  0.2908E-07  0.1581E+02
     16.716  0.2033E-04  0.1581E+02
     16.807  0.2919E-02  0.1581E+02
     16.898  0.8914E-01  0.1582E+02
     16.989  0.6073E+00  0.1588E+02
     17.080  0.9661E+00  0.1596E+02
     17.171  0.3641E+00  0.1600E+02
     17.262  0.3160E-01  0.1600E+02
     17.353  0.6008E-03  0.1600E+02
     17.444  0.2396E-05  0.1600E+02
     17.535  0.1945E-08  0.1600E+02
     17.626  0.3155E-12  0.1600E+02
     17.717  0.0000E+00  0.1600E+02
     17.808  0.0000E+00  0.1600E+02
     17.899  0.0000E+00  0.1600E+02
     17.990  0.0000E+00  0.1600E+02
     18.080  0.0000E+00  0.1600E+02
     18.171  0.0000E+00  0.1600E+02
     18.262  0.0000E+00  0.1600E+02
