    2    2    1    1
  0.2001288E+02  0.3839590E-09  0.3839590E-09  0.3839590E-09  0.5000000E-15
  1.000000000000000E-004
  CAR 
 Si                                      
      8      8      8
 
  0.0000000E+00  0.0000000E+00  0.0000000E+00  0.1562500E-01
    1       -7.780176   1.000000
    2        5.475866   1.000000
    3        5.475866   1.000000
    4        5.475866   1.000000
    5        8.844314   0.000000
    6        8.844314   0.000000
    7        8.844314   0.000000
    8        9.888082   0.000000
 
  0.2500000E+00  0.0000000E+00  0.0000000E+00  0.1250000E+00
    1       -6.893379   1.000000
    2        1.212159   1.000000
    3        4.665195   1.000000
    4        4.665195   1.000000
    5        8.310698   0.000000
    6        9.845637   0.000000
    7        9.845637   0.000000
    8       13.532171   0.000000
 
  0.5000000E+00  0.0000000E+00  0.0000000E+00  0.6250000E-01
    1       -5.186555   1.000000
    2       -2.212378   1.000000
    3        4.166265   1.000000
    4        4.166265   1.000000
    5        7.792029   0.000000
    6        9.652089   0.000000
    7        9.652089   0.000000
    8       14.138634   0.000000
 
  0.2500000E+00  0.2500000E+00  0.0000000E+00  0.9375000E-01
    1       -6.579820   1.000000
    2        1.677951   1.000000
    3        3.430698   1.000000
    4        3.430698   1.000000
    5        7.275969   0.000000
    6        9.412428   0.000000
    7       12.275650   0.000000
    8       12.275652   0.000000
 
  0.5000000E+00  0.2500000E+00  0.0000000E+00  0.3750000E+00
    1       -4.756148   1.000000
    2       -1.551139   1.000000
    3        1.661551   1.000000
    4        3.069440   1.000000
    5        7.691037   0.000000
    6       10.787305   0.000000
    7       12.278164   0.000000
    8       12.426276   0.000000
 
 -0.2500000E+00  0.2500000E+00  0.0000000E+00  0.1875000E+00
    1       -5.508792   1.000000
    2       -0.538426   1.000000
    3        1.420117   1.000000
    4        4.041696   1.000000
    5        8.715274   0.000000
    6       11.267816   0.000000
    7       11.503193   0.000000
    8       12.699705   0.000000
 
  0.5000000E+00  0.5000000E+00  0.0000000E+00  0.4687500E-01
    1       -3.160035   1.000000
    2       -3.160035   1.000000
    3        2.343685   1.000000
    4        2.343685   1.000000
    5        6.818607   0.000000
    6        6.818607   0.000000
    7       17.014791   0.000000
    8       17.022210   0.000000
 
 -0.2500000E+00  0.5000000E+00  0.2500000E+00  0.9375000E-01
    1       -2.977143   1.000000
    2       -2.977143   1.000000
    3        1.300685   1.000000
    4        1.300685   1.000000
    5       10.558851   0.000000
    6       10.558851   0.000000
    7       11.496349   0.000000
    8       11.496349   0.000000
