       N       E                     dE             d eps       ncg     rms          ort
DAV:   1     0.186065931410E+02    0.18607E+02   -0.38736E+03    64   0.917E+02
DAV:   2    -0.170753062791E+01   -0.20314E+02   -0.19819E+02    64   0.869E+01
DAV:   3    -0.198352322640E+01   -0.27599E+00   -0.27599E+00    64   0.121E+01
DAV:   4    -0.198504430737E+01   -0.15211E-02   -0.15211E-02    64   0.104E+00
DAV:   5    -0.198504494046E+01   -0.63309E-06   -0.63360E-06    64   0.203E-02
SDA:   6    -0.129342799864E+02   -0.10949E+02   -0.63360E-06    64   0.316E-01 0.000E+00
CGA:   7    -0.129542861409E+02   -0.20006E-01   -0.19469E-01    64   0.957E-02 0.145E-02
CGA:   8    -0.129590957190E+02   -0.48096E-02   -0.47358E-02    64   0.293E-02 0.296E-03
CGA:   9    -0.129604221495E+02   -0.13264E-02   -0.13220E-02    64   0.401E-03 0.201E-04
CGA:  10    -0.129605729794E+02   -0.15083E-03   -0.15113E-03    64   0.517E-04-0.220E-05
CGA:  11    -0.129605948947E+02   -0.21915E-04   -0.21897E-04    64   0.776E-05 0.666E-07
CGA:  12    -0.129605986725E+02   -0.37778E-05   -0.38511E-05    64   0.179E-05-0.306E-06
CGA:  13    -0.129605995362E+02   -0.86369E-06   -0.91195E-06    64   0.413E-06-0.176E-06
CGA:  14    -0.129605996846E+02   -0.14839E-06   -0.14868E-06    64   0.558E-07-0.107E-08
CGA:  15    -0.129605997034E+02   -0.18789E-07   -0.18577E-07    64   0.998E-08 0.577E-08
CGA:  16    -0.129605997069E+02   -0.35101E-08   -0.37509E-08    64   0.189E-08 0.281E-08
   1 F= -.12960600E+02 E0= -.12960600E+02  d E =-.116331E-13
