 vasp.5.4.4.18Apr17-6-g9f103f2a35 (build Apr 19 2022 13:31:49) complex          
  
 executed on             LinuxIFC date 2023.12.27  07:12:02
 running on    4 total cores
 distrk:  each k-point on    4 cores,    1 groups
 distr:  one band on NCORES_PER_BAND=   1 cores,    4 groups


--------------------------------------------------------------------------------------------------------


 INCAR:
 POTCAR:   PAW_PBE Si 05Jan2001                   
 POTCAR:   PAW_PBE Si 05Jan2001                   
   VRHFIN =Si: s2p2                                                             
   LEXCH  = PE                                                                  
   EATOM  =   103.0669 eV,    7.5752 Ry                                         
                                                                                
   TITEL  = PAW_PBE Si 05Jan2001                                                
   LULTRA =        F    use ultrasoft PP ?                                      
   IUNSCR =        1    unscreen: 0-lin 1-nonlin 2-no                           
   RPACOR =    1.500    partial core radius                                     
   POMASS =   28.085; ZVAL   =    4.000    mass and valenz                      
   RCORE  =    1.900    outmost cutoff radius                                   
   RWIGS  =    2.480; RWIGS  =    1.312    wigner-seitz radius (au A)           
   ENMAX  =  245.345; ENMIN  =  184.009 eV                                      
   ICORE  =        2    local potential                                         
   LCOR   =        T    correct aug charges                                     
   LPAW   =        T    paw PP                                                  
   EAUG   =  322.069                                                            
   DEXC   =    -.007                                                            
   RMAX   =    2.944    core radius for proj-oper                               
   RAUG   =    1.300    factor for augmentation sphere                          
   RDEP   =    1.993    radius for radial grids                                 
   QCUT   =   -4.246; QGAM   =    8.493    optimization parameters              
                                                                                
   Description                                                                  
     l     E      TYP  RCUT    TYP  RCUT                                        
     0   .000     23  1.900                                                     
     0   .000     23  1.900                                                     
     1   .000     23  1.900                                                     
     1   .000     23  1.900                                                     
     2   .000      7  1.900                                                     
  local pseudopotential read in
  partial core-charges read in
  atomic valenz-charges read in
  non local Contribution for L=           0  read in
    real space projection operators read in
  non local Contribution for L=           0  read in
    real space projection operators read in
  non local Contribution for L=           1  read in
    real space projection operators read in
  non local Contribution for L=           1  read in
    real space projection operators read in
    PAW grid and wavefunctions read in
 
   number of l-projection  operators is LMAX  =           4
   number of lm-projection operators is LMMAX =           8
 
 PAW_PBE Si 05Jan2001                   :
 energy of atom  1       EATOM= -103.0669
 kinetic energy error for atom=    0.0004 (will be added to EATOM!!)
 
 
 POSCAR: system Si                               
  positions in cartesian coordinates
  No initial velocities read in
 exchange correlation table for  LEXCH =        8
   RHO(1)=    0.500       N(1)  =     2000
   RHO(2)=  100.500       N(2)  =     4000
 


--------------------------------------------------------------------------------------------------------


 ion  position               nearest neighbor table
   1  0.000  0.000  0.000-   2 2.35   2 2.35   2 2.35   2 2.35
   2  0.250  0.250  0.250-   1 2.35   1 2.35   1 2.35   1 2.35
 
  LATTYP: Found a face centered cubic cell.
 ALAT       =     5.4300000000
  
  Lattice vectors:
  
 A1 = (   2.7150000000,   2.7150000000,   0.0000000000)
 A2 = (   0.0000000000,   2.7150000000,   2.7150000000)
 A3 = (   2.7150000000,   0.0000000000,   2.7150000000)


Analysis of symmetry for initial positions (statically):
=====================================================================
 Subroutine PRICEL returns:
 Original cell was already a primitive cell.
 

 Routine SETGRP: Setting up the symmetry group for a 
 face centered cubic supercell.


 Subroutine GETGRP returns: Found 48 space group operations
 (whereof 24 operations were pure point group operations)
 out of a pool of 48 trial point group operations.


The static configuration has the point symmetry T_d .
 The point group associated with its full space group is O_h .


Analysis of symmetry for dynamics (positions and initial velocities):
=====================================================================
 Subroutine PRICEL returns:
 Original cell was already a primitive cell.
 

 Routine SETGRP: Setting up the symmetry group for a 
 face centered cubic supercell.


 Subroutine GETGRP returns: Found 48 space group operations
 (whereof 24 operations were pure point group operations)
 out of a pool of 48 trial point group operations.


The dynamic configuration has the point symmetry T_d .
 The point group associated with its full space group is O_h .


 Subroutine INISYM returns: Found 48 space group operations
 (whereof 24 operations are pure point group operations),
 and found     1 'primitive' translations

 
 
 KPOINTS: 4x4x4                                   

Automatic generation of k-mesh.
Space group operators:
 irot       det(A)        alpha          n_x          n_y          n_z        tau_x        tau_y        tau_z
    1     1.000000     0.000001     1.000000     0.000000     0.000000     0.000000     0.000000     0.000000
    2     1.000000   120.000000    -0.577350    -0.577350    -0.577350     0.000000     0.000000     0.000000
    3     1.000000   120.000000     0.577350     0.577350     0.577350     0.000000     0.000000     0.000000
    4    -1.000000    90.000000     0.000000    -1.000000     0.000000     0.000000     0.000000     0.000000
    5    -1.000000   180.000000     0.707107     0.707107     0.000000     0.000000     0.000000     0.000000
    6    -1.000000    90.000000     1.000000     0.000000     0.000000     0.000000     0.000000     0.000000
    7     1.000000   180.000000     0.000000     1.000000     0.000000     0.000000     0.000000     0.000000
    8     1.000000   120.000000     0.577350     0.577350    -0.577350     0.000000     0.000000     0.000000
    9     1.000000   120.000000     0.577350    -0.577350    -0.577350     0.000000     0.000000     0.000000
   10    -1.000000    90.000000     0.000000     1.000000     0.000000     0.000000     0.000000     0.000000
   11    -1.000000    90.000000     0.000000     0.000000    -1.000000     0.000000     0.000000     0.000000
   12    -1.000000   180.000000     0.000000     0.707107     0.707107     0.000000     0.000000     0.000000
   13     1.000000   120.000000    -0.577350     0.577350     0.577350     0.000000     0.000000     0.000000
   14     1.000000   120.000000    -0.577350     0.577350    -0.577350     0.000000     0.000000     0.000000
   15     1.000000   180.000000     0.000000     0.000000     1.000000     0.000000     0.000000     0.000000
   16    -1.000000    90.000000    -1.000000     0.000000     0.000000     0.000000     0.000000     0.000000
   17    -1.000000   180.000000     0.707107     0.000000     0.707107     0.000000     0.000000     0.000000
   18    -1.000000    90.000000     0.000000     0.000000     1.000000     0.000000     0.000000     0.000000
   19     1.000000   120.000000    -0.577350    -0.577350     0.577350     0.000000     0.000000     0.000000
   20     1.000000   180.000000     1.000000     0.000000     0.000000     0.000000     0.000000     0.000000
   21     1.000000   120.000000     0.577350    -0.577350     0.577350     0.000000     0.000000     0.000000
   22    -1.000000   180.000000     0.707107    -0.707107     0.000000     0.000000     0.000000     0.000000
   23    -1.000000   180.000000     0.707107     0.000000    -0.707107     0.000000     0.000000     0.000000
   24    -1.000000   180.000000     0.000000    -0.707107     0.707107     0.000000     0.000000     0.000000
   25    -1.000000     0.000001     1.000000     0.000000     0.000000     0.250000     0.250000     0.250000
   26    -1.000000   120.000000    -0.577350    -0.577350    -0.577350     0.250000     0.250000     0.250000
   27    -1.000000   120.000000     0.577350     0.577350     0.577350     0.250000     0.250000     0.250000
   28     1.000000    90.000000     0.000000    -1.000000     0.000000     0.250000     0.250000     0.250000
   29     1.000000   180.000000     0.707107     0.707107     0.000000     0.250000     0.250000     0.250000
   30     1.000000    90.000000     1.000000     0.000000     0.000000     0.250000     0.250000     0.250000
   31    -1.000000   180.000000     0.000000     1.000000     0.000000     0.250000     0.250000     0.250000
   32    -1.000000   120.000000     0.577350     0.577350    -0.577350     0.250000     0.250000     0.250000
   33    -1.000000   120.000000     0.577350    -0.577350    -0.577350     0.250000     0.250000     0.250000
   34     1.000000    90.000000     0.000000     1.000000     0.000000     0.250000     0.250000     0.250000
   35     1.000000    90.000000     0.000000     0.000000    -1.000000     0.250000     0.250000     0.250000
   36     1.000000   180.000000     0.000000     0.707107     0.707107     0.250000     0.250000     0.250000
   37    -1.000000   120.000000    -0.577350     0.577350     0.577350     0.250000     0.250000     0.250000
   38    -1.000000   120.000000    -0.577350     0.577350    -0.577350     0.250000     0.250000     0.250000
   39    -1.000000   180.000000     0.000000     0.000000     1.000000     0.250000     0.250000     0.250000
   40     1.000000    90.000000    -1.000000     0.000000     0.000000     0.250000     0.250000     0.250000
   41     1.000000   180.000000     0.707107     0.000000     0.707107     0.250000     0.250000     0.250000
   42     1.000000    90.000000     0.000000     0.000000     1.000000     0.250000     0.250000     0.250000
   43    -1.000000   120.000000    -0.577350    -0.577350     0.577350     0.250000     0.250000     0.250000
   44    -1.000000   180.000000     1.000000     0.000000     0.000000     0.250000     0.250000     0.250000
   45    -1.000000   120.000000     0.577350    -0.577350     0.577350     0.250000     0.250000     0.250000
   46     1.000000   180.000000     0.707107    -0.707107     0.000000     0.250000     0.250000     0.250000
   47     1.000000   180.000000     0.707107     0.000000    -0.707107     0.250000     0.250000     0.250000
   48     1.000000   180.000000     0.000000    -0.707107     0.707107     0.250000     0.250000     0.250000
 
 Subroutine IBZKPT returns following result:
 ===========================================
 
 Found      8 irreducible k-points:
 
 Following reciprocal coordinates:
            Coordinates               Weight
  0.000000  0.000000  0.000000      1.000000
  0.250000  0.000000  0.000000      8.000000
  0.500000  0.000000  0.000000      4.000000
  0.250000  0.250000  0.000000      6.000000
  0.500000  0.250000  0.000000     24.000000
 -0.250000  0.250000  0.000000     12.000000
  0.500000  0.500000  0.000000      3.000000
 -0.250000  0.500000  0.250000      6.000000
 
 Following cartesian coordinates:
            Coordinates               Weight
  0.000000  0.000000  0.000000      1.000000
  0.250000  0.250000 -0.250000      8.000000
  0.500000  0.500000 -0.500000      4.000000
  0.000000  0.500000  0.000000      6.000000
  0.250000  0.750000 -0.250000     24.000000
 -0.500000  0.000000  0.500000     12.000000
  0.000000  1.000000  0.000000      3.000000
 -0.500000  0.000000  1.000000      6.000000
 
 
 Subroutine IBZKPT_HF returns following result:
 ==============================================
 
 Found     64 k-points in 1st BZ
 the following     64 k-points will be used (e.g. in the exchange kernel)
 Following reciprocal coordinates:   # in IRBZ
  0.000000  0.000000  0.000000    0.01562500   1 t-inv F
  0.250000  0.000000  0.000000    0.01562500   2 t-inv F
  0.500000  0.000000  0.000000    0.01562500   3 t-inv F
  0.250000  0.250000  0.000000    0.01562500   4 t-inv F
  0.500000  0.250000  0.000000    0.01562500   5 t-inv F
 -0.250000  0.250000  0.000000    0.01562500   6 t-inv F
  0.500000  0.500000  0.000000    0.01562500   7 t-inv F
 -0.250000  0.500000  0.250000    0.01562500   8 t-inv F
  0.000000  0.250000  0.000000    0.01562500   2 t-inv F
  0.000000  0.000000  0.250000    0.01562500   2 t-inv F
 -0.250000 -0.250000 -0.250000    0.01562500   2 t-inv F
 -0.250000  0.000000  0.000000    0.01562500   2 t-inv F
  0.000000 -0.250000  0.000000    0.01562500   2 t-inv F
  0.000000  0.000000 -0.250000    0.01562500   2 t-inv F
  0.250000  0.250000  0.250000    0.01562500   2 t-inv F
  0.000000  0.500000  0.000000    0.01562500   3 t-inv F
  0.000000  0.000000  0.500000    0.01562500   3 t-inv F
 -0.500000 -0.500000 -0.500000    0.01562500   3 t-inv F
  0.000000  0.250000  0.250000    0.01562500   4 t-inv F
  0.250000  0.000000  0.250000    0.01562500   4 t-inv F
 -0.250000 -0.250000  0.000000    0.01562500   4 t-inv F
 -0.250000  0.000000 -0.250000    0.01562500   4 t-inv F
  0.000000 -0.250000 -0.250000    0.01562500   4 t-inv F
  0.000000  0.500000  0.250000    0.01562500   5 t-inv F
  0.250000  0.000000  0.500000    0.01562500   5 t-inv F
 -0.250000 -0.250000  0.250000    0.01562500   5 t-inv F
 -0.500000 -0.250000 -0.500000    0.01562500   5 t-inv F
  0.250000  0.500000  0.000000    0.01562500   5 t-inv F
  0.250000 -0.250000 -0.250000    0.01562500   5 t-inv F
 -0.500000 -0.500000 -0.250000    0.01562500   5 t-inv F
  0.000000  0.250000  0.500000    0.01562500   5 t-inv F
 -0.250000  0.250000 -0.250000    0.01562500   5 t-inv F
 -0.250000 -0.500000 -0.500000    0.01562500   5 t-inv F
  0.500000  0.000000  0.250000    0.01562500   5 t-inv F
 -0.500000 -0.250000  0.000000    0.01562500   5 t-inv F
  0.000000 -0.500000 -0.250000    0.01562500   5 t-inv F
 -0.250000  0.000000 -0.500000    0.01562500   5 t-inv F
  0.250000  0.250000 -0.250000    0.01562500   5 t-inv F
  0.500000  0.250000  0.500000    0.01562500   5 t-inv F
 -0.250000 -0.500000  0.000000    0.01562500   5 t-inv F
 -0.250000  0.250000  0.250000    0.01562500   5 t-inv F
  0.500000  0.500000  0.250000    0.01562500   5 t-inv F
  0.000000 -0.250000 -0.500000    0.01562500   5 t-inv F
  0.250000 -0.250000  0.250000    0.01562500   5 t-inv F
  0.250000  0.500000  0.500000    0.01562500   5 t-inv F
 -0.500000  0.000000 -0.250000    0.01562500   5 t-inv F
  0.000000 -0.250000  0.250000    0.01562500   6 t-inv F
  0.250000  0.000000 -0.250000    0.01562500   6 t-inv F
 -0.250000 -0.250000 -0.500000    0.01562500   6 t-inv F
  0.250000  0.500000  0.250000    0.01562500   6 t-inv F
  0.250000 -0.250000  0.000000    0.01562500   6 t-inv F
 -0.500000 -0.250000 -0.250000    0.01562500   6 t-inv F
  0.250000  0.250000  0.500000    0.01562500   6 t-inv F
  0.000000  0.250000 -0.250000    0.01562500   6 t-inv F
 -0.250000 -0.500000 -0.250000    0.01562500   6 t-inv F
  0.500000  0.250000  0.250000    0.01562500   6 t-inv F
 -0.250000  0.000000  0.250000    0.01562500   6 t-inv F
  0.000000  0.500000  0.500000    0.01562500   7 t-inv F
  0.500000  0.000000  0.500000    0.01562500   7 t-inv F
  0.250000 -0.250000  0.500000    0.01562500   8 t-inv F
  0.500000  0.250000 -0.250000    0.01562500   8 t-inv F
 -0.500000 -0.250000 -0.750000    0.01562500   8 t-inv F
  0.250000 -0.500000 -0.250000    0.01562500   8 t-inv F
 -0.250000  0.250000 -0.500000    0.01562500   8 t-inv F


--------------------------------------------------------------------------------------------------------




 Dimension of arrays:
   k-points           NKPTS =      8   k-points in BZ     NKDIM =     64   number of bands    NBANDS=      8
   number of dos      NEDOS =    301   number of ions     NIONS =      2
   non local maximal  LDIM  =      4   non local SUM 2l+1 LMDIM =      8
   total plane-waves  NPLWV =  27000
   max r-space proj   IRMAX =      1   max aug-charges    IRDMAX=  22751
   dimension x,y,z NGX =    30 NGY =   30 NGZ =   30
   dimension x,y,z NGXF=    60 NGYF=   60 NGZF=   60
   support grid    NGXF=    60 NGYF=   60 NGZF=   60
   ions per type =               2
   NGX,Y,Z   is equivalent  to a cutoff of  12.99, 12.99, 12.99 a.u.
   NGXF,Y,Z  is equivalent  to a cutoff of  25.98, 25.98, 25.98 a.u.

 SYSTEM =  Si                                      
 POSCAR =  system Si                               

 Startparameter for this run:
   NWRITE =      2    write-flag & timer
   PREC   = accura    normal or accurate (medium, high low for compatibility)
   ISTART =      0    job   : 0-new  1-cont  2-samecut
   ICHARG =      2    charge: 1-file 2-atom 10-const
   ISPIN  =      1    spin polarized calculation?
   LNONCOLLINEAR =      F non collinear calculations
   LSORBIT =      F    spin-orbit coupling
   INIWAV =      1    electr: 0-lowe 1-rand  2-diag
   LASPH  =      F    aspherical Exc in radial PAW
   METAGGA=      F    non-selfconsistent MetaGGA calc.

 Electronic Relaxation 1
   ENCUT  =  550.0 eV  40.42 Ry    6.36 a.u.   7.34  7.34  7.34*2*pi/ulx,y,z
   ENINI  =  550.0     initial cutoff
   ENAUG  =  322.1 eV  augmentation charge cutoff
   NELM   =     60;   NELMIN=  2; NELMDL=  0     # of ELM steps 
   EDIFF  = 0.1E-07   stopping-criterion for ELM
   LREAL  =      F    real-space projection
   NLSPLINE    = F    spline interpolate recip. space projectors
   LCOMPAT=      F    compatible to vasp.4.4
   GGA_COMPAT  = T    GGA compatible to vasp.4.4-vasp.4.6
   LMAXPAW     = -100 max onsite density
   LMAXMIX     =    2 max onsite mixed and CHGCAR
   VOSKOWN=      0    Vosko Wilk Nusair interpolation
   ROPT   =    0.00000
 Ionic relaxation
   EDIFFG = 0.1E-06   stopping-criterion for IOM
   NSW    =      0    number of steps for IOM
   NBLOCK =      1;   KBLOCK =      1    inner block; outer block 
   IBRION =     -1    ionic relax: 0-MD 1-quasi-New 2-CG
   NFREE  =      0    steps in history (QN), initial steepest desc. (CG)
   ISIF   =      2    stress and relaxation
   IWAVPR =     10    prediction:  0-non 1-charg 2-wave 3-comb
   ISYM   =      3    0-nonsym 1-usesym 2-fastsym
   LCORR  =      T    Harris-Foulkes like correction to forces

   POTIM  = 0.5000    time-step for ionic-motion
   TEIN   =    0.0    initial temperature
   TEBEG  =    0.0;   TEEND  =   0.0 temperature during run
   SMASS  =  -3.00    Nose mass-parameter (am)
   estimated Nose-frequenzy (Omega)   =  0.10E-29 period in steps =****** mass=  -0.337E-27a.u.
   SCALEE = 1.0000    scale energy and forces
   NPACO  =    256;   APACO  = 16.0  distance and # of slots for P.C.
   PSTRESS=    0.0 pullay stress

  Mass of Ions in am
   POMASS =  28.09
  Ionic Valenz
   ZVAL   =   4.00
  Atomic Wigner-Seitz radii
   RWIGS  =  -1.00
  virtual crystal weights 
   VCA    =   1.00
   NELECT =       8.0000    total number of electrons
   NUPDOWN=      -1.0000    fix difference up-down

 DOS related values:
   EMIN   =  10.00;   EMAX   =-10.00  energy-range for DOS
   EFERMI =   0.00
   ISMEAR =     0;   SIGMA  =   0.10  broadening in eV -4-tet -1-fermi 0-gaus

 Electronic relaxation 2 (details)
   IALGO  =     58    algorithm
   LDIAG  =      T    sub-space diagonalisation (order eigenvalues)
   LSUBROT=      F    optimize rotation matrix (better conditioning)
   TURBO    =      0    0=normal 1=particle mesh
   IRESTART =      0    0=no restart 2=restart with 2 vectors
   NREBOOT  =      0    no. of reboots
   NMIN     =      0    reboot dimension
   EREF     =   0.00    reference energy to select bands
   IMIX   =      4    mixing-type and parameters
     AMIX     =   0.40;   BMIX     =  1.00
     AMIX_MAG =   1.60;   BMIX_MAG =  1.00
     AMIN     =   0.10
     WC   =   100.;   INIMIX=   1;  MIXPRE=   1;  MAXMIX= -45

 Intra band minimization:
   WEIMIN = 0.0000     energy-eigenvalue tresh-hold
   EBREAK =  0.31E-09  absolut break condition
   DEPER  =   0.30     relativ break condition  

   TIME   =   0.40     timestep for ELM

  volume/ion in A,a.u.               =      20.01       135.05
  Fermi-wavevector in a.u.,A,eV,Ry     =   0.957176  1.808800 12.465458  0.916185
  Thomas-Fermi vector in A             =   2.086170
 
 Write flags
   LWAVE        =      T    write WAVECAR
   LDOWNSAMPLE  =      F    k-point downsampling of WAVECAR
   LCHARG       =      F    write CHGCAR
   LVTOT        =      F    write LOCPOT, total local potential
   LVHAR        =      F    write LOCPOT, Hartree potential only
   LELF         =      F    write electronic localiz. function (ELF)
   LORBIT       =      0    0 simple, 1 ext, 2 COOP (PROOUT), +10 PAW based schemes


 Dipole corrections
   LMONO  =      F    monopole corrections only (constant potential shift)
   LDIPOL =      F    correct potential (dipole corrections)
   IDIPOL =      0    1-x, 2-y, 3-z, 4-all directions 
   EPSILON=  1.0000000 bulk dielectric constant

 Exchange correlation treatment:
   GGA     =    --    GGA type
   LEXCH   =     8    internal setting for exchange type
   VOSKOWN=      0    Vosko Wilk Nusair interpolation
   EXXOEP  =     0    0=HF, 1=EXX-LHF (local Hartree Fock) 2=EXX OEP
   LHFCALC =     T    Hartree Fock is set to
   LSYMGRAD=     F    symmetrize gradient (conserves proper symmetry)
   PRECFOCK=normal    Normal, Fast or Accurate (Low or Medium for compatibility)
   LRHFCALC=     F    long range Hartree Fock
   LRSCOR  =     F    long range correlation only (use DFT for short range part)
   LTHOMAS =     F    Thomas Fermi screening in HF
   LMODELHF=     F    short range full HF, long range fraction AEXX
   ENCUT4O =  -1.0   cutoff for four orbital integrals eV
   LMAXFOCK=     4    L truncation for augmentation on plane wave grid
   LMAXFOCKAE=  -1    L truncation for all-electron charge restoration on plane wave grid
   NMAXFOCKAE=   1    number of basis functions for all-electron charge restoration
   LFOCKAEDFT=     F  apply the AE augmentation even for DFT
   NKREDX  =     1    reduce k-point grid by
   NKREDY  =     1    reduce k-point grid by
   NKREDZ  =     1    reduce k-point grid by
   SHIFTRED=     F    shift reduced grid of Gamma
   HFKIDENT=     F    idential grid for each k-point
   ODDONLY =     F    use only odd q-grid points
   EVENONLY=     F    use only even q-grid points
   HFALPHA =   -1.0000 decay constant for conv. correction
   MCALPHA =    0.0000 extent of test-charge in conv. correction in multipole expansion
   AEXX    =    0.2500 exact exchange contribution
   HFSCREEN=    0.2000 screening length (either q_TF or 0.3 A-1)
   HFSCREENC=   0.2000 screening length for correlation (either q_TF or 0.3 A-1)
   HFRCUT  =    0.0000 spherical cutoff for potential kernel
   ALDAX   =    0.7500 LDA exchange part
   AGGAX   =    0.7500 GGA exchange part
   ALDAC   =    1.0000 LDA correlation
   AGGAC   =    1.0000 GGA correlation
   ENCUTFOCK=  -1.0 apply spherical cutoff to Coloumb kernel
   NBANDSGWLOW=     1    first orbital included in HF term
   NBLOCK_FOCK=    64    blocking factor in FOCK_ACC
 Linear response parameters
   LEPSILON=     F    determine dielectric tensor
   LRPA    =     F    only Hartree local field effects (RPA)
   LNABLA  =     F    use nabla operator in PAW spheres
   LVEL    =     F    velocity operator in full k-point grid
   LINTERFAST=   F  fast interpolation
   KINTER  =     0    interpolate to denser k-point grid
   CSHIFT  =0.1000    complex shift for real part using Kramers Kronig
   OMEGAMAX=  -1.0    maximum frequency
   DEG_THRESHOLD= 0.2000000E-02 threshold for treating states as degnerate
   RTIME   =   -0.100 relaxation time in fs
  (WPLASMAI=    0.000 imaginary part of plasma frequency in eV, 0.658/RTIME)
   DFIELD  = 0.0000000 0.0000000 0.0000000 field for delta impulse in time
 
 Orbital magnetization related:
   ORBITALMAG=     F  switch on orbital magnetization
   LCHIMAG   =     F  perturbation theory with respect to B field
   DQ        =  0.001000  dq finite difference perturbation B field
   LLRAUG    =     F  two centre corrections for induced B field



--------------------------------------------------------------------------------------------------------


 Static calculation
 charge density and potential will be updated during run
 non-spin polarized calculation
 Conjugate gradient for all bands (Freysoldt, et al. PRB 79, 241103 (2009))
 preconditioned conjugated gradient                                        
 perform sub-space diagonalisation
    before iterative eigenvector-optimisation
 modified Broyden-mixing scheme, WC =      100.0
 initial mixing is a Kerker type mixing with AMIX =  0.4000 and BMIX =      1.0000
 Hartree-type preconditioning will be used
 using additional bands            4
 reciprocal scheme for non local part
 use partial core corrections
 no Harris-corrections to forces 
 use gradient corrections 
 use of overlap-Matrix (Vanderbilt PP)
 Gauss-broadening in eV      SIGMA  =   0.10


--------------------------------------------------------------------------------------------------------


  energy-cutoff  :      550.00
  volume of cell :       40.03
      direct lattice vectors                 reciprocal lattice vectors
     2.715000000  2.715000000  0.000000000     0.184162063  0.184162063 -0.184162063
     0.000000000  2.715000000  2.715000000    -0.184162063  0.184162063  0.184162063
     2.715000000  0.000000000  2.715000000     0.184162063 -0.184162063  0.184162063

  length of vectors
     3.839589822  3.839589822  3.839589822     0.318978049  0.318978049  0.318978049


 
 k-points in units of 2pi/SCALE and weight: 4x4x4                                   
   0.00000000  0.00000000  0.00000000       0.016
   0.25000000  0.25000000 -0.25000000       0.125
   0.50000000  0.50000000 -0.50000000       0.062
   0.00000000  0.50000000  0.00000000       0.094
   0.25000000  0.75000000 -0.25000000       0.375
  -0.50000000  0.00000000  0.50000000       0.188
   0.00000000  1.00000000  0.00000000       0.047
  -0.50000000  0.00000000  1.00000000       0.094
 
 k-points in reciprocal lattice and weights: 4x4x4                                   
   0.00000000  0.00000000  0.00000000       0.016
   0.25000000  0.00000000  0.00000000       0.125
   0.50000000  0.00000000  0.00000000       0.062
   0.25000000  0.25000000  0.00000000       0.094
   0.50000000  0.25000000  0.00000000       0.375
  -0.25000000  0.25000000  0.00000000       0.188
   0.50000000  0.50000000  0.00000000       0.047
  -0.25000000  0.50000000  0.25000000       0.094
 
 position of ions in fractional coordinates (direct lattice) 
   0.00000000  0.00000000  0.00000000
   0.25000000  0.25000000  0.25000000
 
 position of ions in cartesian coordinates  (Angst):
   0.00000000  0.00000000  0.00000000
   1.35750000  1.35750000  1.35750000
 


--------------------------------------------------------------------------------------------------------


 k-point  1 :   0.0000 0.0000 0.0000  plane waves:    1211
 k-point  2 :   0.2500 0.0000 0.0000  plane waves:    1179
 k-point  3 :   0.5000 0.0000 0.0000  plane waves:    1170
 k-point  4 :   0.2500 0.2500 0.0000  plane waves:    1174
 k-point  5 :   0.5000 0.2500 0.0000  plane waves:    1172
 k-point  6 :  -0.2500 0.2500 0.0000  plane waves:    1171
 k-point  7 :   0.5000 0.5000 0.0000  plane waves:    1162
 k-point  8 :  -0.2500 0.5000 0.2500  plane waves:    1176

 maximum and minimum number of plane-waves per node :      1211     1162

 maximum number of plane-waves:      1211
 maximum index in each direction: 
   IXMAX=    7   IYMAX=    7   IZMAX=    7
   IXMIN=   -7   IYMIN=   -7   IZMIN=   -7


 serial   3D FFT for wavefunctions
 parallel 3D FFT for charge:
    minimum data exchange during FFTs selected (reduces bandwidth)


 FFT grid for exact exchange (Hartree Fock) 
  NGX = 24; NGY = 24; NGZ = 24

 
 Radii for the augmentation spheres in the non-local exchange
 for species   1 augmentation radius   1.055 (default was   0.989)
       energy cutoff for augmentation   2200.0
 Maximum index for augmentation-charges in exchange         1721
  SETUP_FOCK is finished

 total amount of memory used by VASP MPI-rank0    37673. kBytes
=======================================================================

   base      :      30000. kBytes
   nonl-proj :        659. kBytes
   fftplans  :       1986. kBytes
   grid      :       3744. kBytes
   one-center:          6. kBytes
   HF        :          4. kBytes
   nonlr-proj:        332. kBytes
   wavefun   :        942. kBytes
 
     INWAV:  cpu time    0.0000: real time    0.0000
 Broyden mixing: mesh for mixing (old mesh)
   NGX = 15   NGY = 15   NGZ = 15
  (NGX  = 60   NGY  = 60   NGZ  = 60)
  gives a total of   3375 points

 initial charge density was supplied:
 charge density of overlapping atoms calculated
 number of electron       8.0000000 magnetization 
 charge density for first step will be calculated from the start-wavefunctions


--------------------------------------------------------------------------------------------------------


 Maximum index for augmentation-charges         5439 (set IRDMAX)


--------------------------------------------------------------------------------------------------------


 First call to EWALD:  gamma=   0.518
 Maximum number of real-space cells 3x 3x 3
 Maximum number of reciprocal cells 3x 3x 3

    FEWALD:  cpu time    0.0010: real time    0.0010


--------------------------------------- Iteration      1(   1)  ---------------------------------------


    POTLOK:  cpu time    0.0785: real time    0.0785
    SETDIJ:  cpu time    0.0447: real time    0.0447
    TRIAL :  cpu time    0.0351: real time    0.0351
    CORREC:  cpu time    0.0001: real time    0.0001
    --------------------------------------------
      LOOP:  cpu time    0.1589: real time    0.1596

 eigenvalue-minimisations  :   128
 total energy-change (2. order) : 0.1860659E+02  (-0.3873576E+03)
 number of electron       8.0000000 magnetization 
 augmentation part        8.0000000 magnetization 

 Free energy of the ion-electron system (eV)
  ---------------------------------------------------
  alpha Z        PSCENC =         3.36414203
  Ewald energy   TEWEN  =      -228.56352493
  -Hartree energ DENC   =       -11.00108243
  -exchange      EXHF   =         0.00000000
  -V(xc)+E(xc)   XCENC  =       -14.88407456
  PAW double counting   =        60.33374234      -32.48933902
  entropy T*S    EENTRO =        -0.00000059
  eigenvalues    EBANDS =        38.44499239
  atomic energy  EATOM  =       203.40173791
  ---------------------------------------------------
  free energy    TOTEN  =        18.60659314 eV

  energy without entropy =       18.60659374  energy(sigma->0) =       18.60659344
  exchange ACFDT corr.  =         0.00000000  see jH, gK, PRB 81, 115126


--------------------------------------------------------------------------------------------------------




--------------------------------------- Iteration      1(   2)  ---------------------------------------


    TRIAL :  cpu time    0.0495: real time    0.0495
    CORREC:  cpu time    0.0001: real time    0.0001
    --------------------------------------------
      LOOP:  cpu time    0.0498: real time    0.0502

 eigenvalue-minimisations  :   208
 total energy-change (2. order) :-0.2031412E+02  (-0.1981901E+02)
 number of electron       8.0000000 magnetization 
 augmentation part        8.0000000 magnetization 

 Free energy of the ion-electron system (eV)
  ---------------------------------------------------
  alpha Z        PSCENC =         3.36414203
  Ewald energy   TEWEN  =      -228.56352493
  -Hartree energ DENC   =       -11.00108243
  -exchange      EXHF   =         0.00000000
  -V(xc)+E(xc)   XCENC  =       -14.88407456
  PAW double counting   =        60.33374234      -32.48933902
  entropy T*S    EENTRO =        -0.00000575
  eigenvalues    EBANDS =        18.13087378
  atomic energy  EATOM  =       203.40173791
  ---------------------------------------------------
  free energy    TOTEN  =        -1.70753063 eV

  energy without entropy =       -1.70752488  energy(sigma->0) =       -1.70752775
  exchange ACFDT corr.  =         0.00000000  see jH, gK, PRB 81, 115126


--------------------------------------------------------------------------------------------------------




--------------------------------------- Iteration      1(   3)  ---------------------------------------


    TRIAL :  cpu time    0.0383: real time    0.0383
    CORREC:  cpu time    0.0001: real time    0.0001
    --------------------------------------------
      LOOP:  cpu time    0.0385: real time    0.0385

 eigenvalue-minimisations  :   152
 total energy-change (2. order) :-0.2759926E+00  (-0.2759924E+00)
 number of electron       8.0000000 magnetization 
 augmentation part        8.0000000 magnetization 

 Free energy of the ion-electron system (eV)
  ---------------------------------------------------
  alpha Z        PSCENC =         3.36414203
  Ewald energy   TEWEN  =      -228.56352493
  -Hartree energ DENC   =       -11.00108243
  -exchange      EXHF   =         0.00000000
  -V(xc)+E(xc)   XCENC  =       -14.88407456
  PAW double counting   =        60.33374234      -32.48933902
  entropy T*S    EENTRO =        -0.00000247
  eigenvalues    EBANDS =        17.85487790
  atomic energy  EATOM  =       203.40173791
  ---------------------------------------------------
  free energy    TOTEN  =        -1.98352323 eV

  energy without entropy =       -1.98352076  energy(sigma->0) =       -1.98352199
  exchange ACFDT corr.  =         0.00000000  see jH, gK, PRB 81, 115126


--------------------------------------------------------------------------------------------------------




--------------------------------------- Iteration      1(   4)  ---------------------------------------


    TRIAL :  cpu time    0.0492: real time    0.0492
    CORREC:  cpu time    0.0001: real time    0.0001
    --------------------------------------------
      LOOP:  cpu time    0.0494: real time    0.0494

 eigenvalue-minimisations  :   208
 total energy-change (2. order) :-0.1521081E-02  (-0.1521081E-02)
 number of electron       8.0000000 magnetization 
 augmentation part        8.0000000 magnetization 

 Free energy of the ion-electron system (eV)
  ---------------------------------------------------
  alpha Z        PSCENC =         3.36414203
  Ewald energy   TEWEN  =      -228.56352493
  -Hartree energ DENC   =       -11.00108243
  -exchange      EXHF   =         0.00000000
  -V(xc)+E(xc)   XCENC  =       -14.88407456
  PAW double counting   =        60.33374234      -32.48933902
  entropy T*S    EENTRO =        -0.00000245
  eigenvalues    EBANDS =        17.85335681
  atomic energy  EATOM  =       203.40173791
  ---------------------------------------------------
  free energy    TOTEN  =        -1.98504431 eV

  energy without entropy =       -1.98504185  energy(sigma->0) =       -1.98504308
  exchange ACFDT corr.  =         0.00000000  see jH, gK, PRB 81, 115126


--------------------------------------------------------------------------------------------------------




--------------------------------------- Iteration      1(   5)  ---------------------------------------


    TRIAL :  cpu time    0.0367: real time    0.0367
    CORREC:  cpu time    0.0001: real time    0.0001
    CHARGE:  cpu time    0.0225: real time    0.0225
    --------------------------------------------
      LOOP:  cpu time    0.0594: real time    0.0594

 eigenvalue-minimisations  :   144
 total energy-change (2. order) :-0.6330934E-06  (-0.6336018E-06)
 number of electron       8.0000000 magnetization 
 augmentation part       -0.4393090 magnetization 

 Free energy of the ion-electron system (eV)
  ---------------------------------------------------
  alpha Z        PSCENC =         3.36414203
  Ewald energy   TEWEN  =      -228.56352493
  -Hartree energ DENC   =       -11.00108243
  -exchange      EXHF   =         0.00000000
  -V(xc)+E(xc)   XCENC  =       -14.88407456
  PAW double counting   =        60.33374234      -32.48933902
  entropy T*S    EENTRO =        -0.00000245
  eigenvalues    EBANDS =        17.85335617
  atomic energy  EATOM  =       203.40173791
  ---------------------------------------------------
  free energy    TOTEN  =        -1.98504494 eV

  energy without entropy =       -1.98504249  energy(sigma->0) =       -1.98504371
  exchange ACFDT corr.  =         0.00000000  see jH, gK, PRB 81, 115126


--------------------------------------------------------------------------------------------------------




--------------------------------------- Iteration      1(   6)  ---------------------------------------


    POTLOK:  cpu time    0.0775: real time    0.0775
    SETDIJ:  cpu time    0.0444: real time    0.0444
    TRIAL :  cpu time    1.8235: real time    1.8245
    CORREC:  cpu time    1.9197: real time    1.9205
    CHARGE:  cpu time    0.0222: real time    0.0222
    --------------------------------------------
      LOOP:  cpu time    3.8874: real time    3.8893

 eigenvalue-minimisations  :     0
 total energy-change (2. order) :-0.1094924E+02  (-0.1946880E-01)
 number of electron       8.0000000 magnetization 
 augmentation part       -0.4350892 magnetization 

 Free energy of the ion-electron system (eV)
  ---------------------------------------------------
  alpha Z        PSCENC =         3.36414203
  Ewald energy   TEWEN  =      -228.56352493
  -Hartree energ DENC   =       -14.88176675
  -exchange      EXHF   =        11.24184346
  -V(xc)+E(xc)   XCENC  =       -14.38846928
  PAW double counting   =        69.76441672      -42.11375146
  entropy T*S    EENTRO =        -0.00000000
  eigenvalues    EBANDS =        -0.75890524
  atomic energy  EATOM  =       203.40173791
  ---------------------------------------------------
  free energy    TOTEN  =       -12.93427999 eV

  energy without entropy =      -12.93427999  energy(sigma->0) =      -12.93427999
  exchange ACFDT corr.  =        -0.00000053  see jH, gK, PRB 81, 115126


--------------------------------------------------------------------------------------------------------




--------------------------------------- Iteration      1(   7)  ---------------------------------------


    POTLOK:  cpu time    0.0777: real time    0.0777
    SETDIJ:  cpu time    0.0443: real time    0.0443
    TRIAL :  cpu time    1.7211: real time    1.7218
    CORREC:  cpu time    1.8480: real time    1.8488
    CHARGE:  cpu time    0.0207: real time    0.0207
    --------------------------------------------
      LOOP:  cpu time    3.7120: real time    3.7136

 eigenvalue-minimisations  :     0
 total energy-change (2. order) :-0.2000615E-01  (-0.4735761E-02)
 number of electron       8.0000000 magnetization 
 augmentation part       -0.4336898 magnetization 

 Free energy of the ion-electron system (eV)
  ---------------------------------------------------
  alpha Z        PSCENC =         3.36414203
  Ewald energy   TEWEN  =      -228.56352493
  -Hartree energ DENC   =       -15.15482964
  -exchange      EXHF   =        11.30102982
  -V(xc)+E(xc)   XCENC  =       -14.36437369
  PAW double counting   =        69.65731096      -42.00411036
  entropy T*S    EENTRO =        -0.00000000
  eigenvalues    EBANDS =        -0.59166824
  atomic energy  EATOM  =       203.40173791
  ---------------------------------------------------
  free energy    TOTEN  =       -12.95428614 eV

  energy without entropy =      -12.95428614  energy(sigma->0) =      -12.95428614
  exchange ACFDT corr.  =        -0.00000000  see jH, gK, PRB 81, 115126


--------------------------------------------------------------------------------------------------------




--------------------------------------- Iteration      1(   8)  ---------------------------------------


    POTLOK:  cpu time    0.0774: real time    0.0774
    SETDIJ:  cpu time    0.0443: real time    0.0444
    TRIAL :  cpu time    1.7193: real time    1.7199
    CORREC:  cpu time    1.8550: real time    1.8560
    CHARGE:  cpu time    0.0218: real time    0.0218
    --------------------------------------------
      LOOP:  cpu time    3.7178: real time    3.7196

 eigenvalue-minimisations  :     0
 total energy-change (2. order) :-0.4809578E-02  (-0.1322036E-02)
 number of electron       8.0000000 magnetization 
 augmentation part       -0.4345711 magnetization 

 Free energy of the ion-electron system (eV)
  ---------------------------------------------------
  alpha Z        PSCENC =         3.36414203
  Ewald energy   TEWEN  =      -228.56352493
  -Hartree energ DENC   =       -15.17224953
  -exchange      EXHF   =        11.31401458
  -V(xc)+E(xc)   XCENC  =       -14.36196133
  PAW double counting   =        69.56961444      -41.91479695
  entropy T*S    EENTRO =        -0.00000000
  eigenvalues    EBANDS =        -0.59607194
  atomic energy  EATOM  =       203.40173791
  ---------------------------------------------------
  free energy    TOTEN  =       -12.95909572 eV

  energy without entropy =      -12.95909572  energy(sigma->0) =      -12.95909572
  exchange ACFDT corr.  =        -0.00000000  see jH, gK, PRB 81, 115126


--------------------------------------------------------------------------------------------------------




--------------------------------------- Iteration      1(   9)  ---------------------------------------


    POTLOK:  cpu time    0.0781: real time    0.0781
    SETDIJ:  cpu time    0.0447: real time    0.0447
    TRIAL :  cpu time    1.7238: real time    1.7246
    CORREC:  cpu time    1.8606: real time    1.8614
    CHARGE:  cpu time    0.0209: real time    0.0209
    --------------------------------------------
      LOOP:  cpu time    3.7282: real time    3.7298

 eigenvalue-minimisations  :     0
 total energy-change (2. order) :-0.1326430E-02  (-0.1511256E-03)
 number of electron       8.0000000 magnetization 
 augmentation part       -0.4345605 magnetization 

 Free energy of the ion-electron system (eV)
  ---------------------------------------------------
  alpha Z        PSCENC =         3.36414203
  Ewald energy   TEWEN  =      -228.56352493
  -Hartree energ DENC   =       -15.25048077
  -exchange      EXHF   =        11.32558493
  -V(xc)+E(xc)   XCENC  =       -14.35673678
  PAW double counting   =        69.70175801      -42.05030571
  entropy T*S    EENTRO =        -0.00000000
  eigenvalues    EBANDS =        -0.53259685
  atomic energy  EATOM  =       203.40173791
  ---------------------------------------------------
  free energy    TOTEN  =       -12.96042215 eV

  energy without entropy =      -12.96042215  energy(sigma->0) =      -12.96042215
  exchange ACFDT corr.  =        -0.00000000  see jH, gK, PRB 81, 115126


--------------------------------------------------------------------------------------------------------




--------------------------------------- Iteration      1(  10)  ---------------------------------------


    POTLOK:  cpu time    0.0774: real time    0.0774
    SETDIJ:  cpu time    0.0444: real time    0.0444
    TRIAL :  cpu time    1.7217: real time    1.7225
    CORREC:  cpu time    1.8622: real time    1.8629
    CHARGE:  cpu time    0.0211: real time    0.0211
    --------------------------------------------
      LOOP:  cpu time    3.7268: real time    3.7284

 eigenvalue-minimisations  :     0
 total energy-change (2. order) :-0.1508299E-03  (-0.2189682E-04)
 number of electron       8.0000000 magnetization 
 augmentation part       -0.4344228 magnetization 

 Free energy of the ion-electron system (eV)
  ---------------------------------------------------
  alpha Z        PSCENC =         3.36414203
  Ewald energy   TEWEN  =      -228.56352493
  -Hartree energ DENC   =       -15.26944228
  -exchange      EXHF   =        11.32839944
  -V(xc)+E(xc)   XCENC  =       -14.35530938
  PAW double counting   =        69.73342503      -42.08270693
  entropy T*S    EENTRO =        -0.00000000
  eigenvalues    EBANDS =        -0.51729387
  atomic energy  EATOM  =       203.40173791
  ---------------------------------------------------
  free energy    TOTEN  =       -12.96057298 eV

  energy without entropy =      -12.96057298  energy(sigma->0) =      -12.96057298
  exchange ACFDT corr.  =        -0.00000000  see jH, gK, PRB 81, 115126


--------------------------------------------------------------------------------------------------------




--------------------------------------- Iteration      1(  11)  ---------------------------------------


    POTLOK:  cpu time    0.0775: real time    0.0775
    SETDIJ:  cpu time    0.0445: real time    0.0445
    TRIAL :  cpu time    1.7260: real time    1.7268
    CORREC:  cpu time    1.8564: real time    1.8571
    CHARGE:  cpu time    0.0213: real time    0.0213
    --------------------------------------------
      LOOP:  cpu time    3.7259: real time    3.7274

 eigenvalue-minimisations  :     0
 total energy-change (2. order) :-0.2191536E-04  (-0.3851146E-05)
 number of electron       8.0000000 magnetization 
 augmentation part       -0.4343873 magnetization 

 Free energy of the ion-electron system (eV)
  ---------------------------------------------------
  alpha Z        PSCENC =         3.36414203
  Ewald energy   TEWEN  =      -228.56352493
  -Hartree energ DENC   =       -15.26982646
  -exchange      EXHF   =        11.32883188
  -V(xc)+E(xc)   XCENC  =       -14.35515478
  PAW double counting   =        69.73359446      -42.08281660
  entropy T*S    EENTRO =        -0.00000000
  eigenvalues    EBANDS =        -0.51757840
  atomic energy  EATOM  =       203.40173791
  ---------------------------------------------------
  free energy    TOTEN  =       -12.96059489 eV

  energy without entropy =      -12.96059489  energy(sigma->0) =      -12.96059489
  exchange ACFDT corr.  =        -0.00000000  see jH, gK, PRB 81, 115126


--------------------------------------------------------------------------------------------------------




--------------------------------------- Iteration      1(  12)  ---------------------------------------


    POTLOK:  cpu time    0.0776: real time    0.0776
    SETDIJ:  cpu time    0.0447: real time    0.0447
    TRIAL :  cpu time    1.7394: real time    1.7401
    CORREC:  cpu time    1.8574: real time    1.8581
    CHARGE:  cpu time    0.0210: real time    0.0210
    --------------------------------------------
      LOOP:  cpu time    3.7402: real time    3.7417

 eigenvalue-minimisations  :     0
 total energy-change (2. order) :-0.3777778E-05  (-0.9119458E-06)
 number of electron       8.0000000 magnetization 
 augmentation part       -0.4343792 magnetization 

 Free energy of the ion-electron system (eV)
  ---------------------------------------------------
  alpha Z        PSCENC =         3.36414203
  Ewald energy   TEWEN  =      -228.56352493
  -Hartree energ DENC   =       -15.26966590
  -exchange      EXHF   =        11.32893603
  -V(xc)+E(xc)   XCENC  =       -14.35512370
  PAW double counting   =        69.73450234      -42.08371191
  entropy T*S    EENTRO =        -0.00000000
  eigenvalues    EBANDS =        -0.51789054
  atomic energy  EATOM  =       203.40173791
  ---------------------------------------------------
  free energy    TOTEN  =       -12.96059867 eV

  energy without entropy =      -12.96059867  energy(sigma->0) =      -12.96059867
  exchange ACFDT corr.  =        -0.00000000  see jH, gK, PRB 81, 115126


--------------------------------------------------------------------------------------------------------




--------------------------------------- Iteration      1(  13)  ---------------------------------------


    POTLOK:  cpu time    0.0775: real time    0.0776
    SETDIJ:  cpu time    0.0445: real time    0.0445
    TRIAL :  cpu time    1.7212: real time    1.7219
    CORREC:  cpu time    1.8578: real time    1.8586
    CHARGE:  cpu time    0.0210: real time    0.0210
    --------------------------------------------
      LOOP:  cpu time    3.7222: real time    3.7238

 eigenvalue-minimisations  :     0
 total energy-change (2. order) :-0.8636945E-06  (-0.1486797E-06)
 number of electron       8.0000000 magnetization 
 augmentation part       -0.4343704 magnetization 

 Free energy of the ion-electron system (eV)
  ---------------------------------------------------
  alpha Z        PSCENC =         3.36414203
  Ewald energy   TEWEN  =      -228.56352493
  -Hartree energ DENC   =       -15.27110979
  -exchange      EXHF   =        11.32918123
  -V(xc)+E(xc)   XCENC  =       -14.35500562
  PAW double counting   =        69.73682020      -42.08608571
  entropy T*S    EENTRO =        -0.00000000
  eigenvalues    EBANDS =        -0.51675486
  atomic energy  EATOM  =       203.40173791
  ---------------------------------------------------
  free energy    TOTEN  =       -12.96059954 eV

  energy without entropy =      -12.96059954  energy(sigma->0) =      -12.96059954
  exchange ACFDT corr.  =        -0.00000000  see jH, gK, PRB 81, 115126


--------------------------------------------------------------------------------------------------------




--------------------------------------- Iteration      1(  14)  ---------------------------------------


    POTLOK:  cpu time    0.0819: real time    0.0819
    SETDIJ:  cpu time    0.0471: real time    0.0471
    TRIAL :  cpu time    1.7381: real time    1.7389
    CORREC:  cpu time    1.8607: real time    1.8615
    CHARGE:  cpu time    0.0209: real time    0.0209
    --------------------------------------------
      LOOP:  cpu time    3.7490: real time    3.7511

 eigenvalue-minimisations  :     0
 total energy-change (2. order) :-0.1483869E-06  (-0.1857678E-07)
 number of electron       8.0000000 magnetization 
 augmentation part       -0.4343685 magnetization 

 Free energy of the ion-electron system (eV)
  ---------------------------------------------------
  alpha Z        PSCENC =         3.36414203
  Ewald energy   TEWEN  =      -228.56352493
  -Hartree energ DENC   =       -15.27103705
  -exchange      EXHF   =        11.32920806
  -V(xc)+E(xc)   XCENC  =       -14.35500590
  PAW double counting   =        69.73641912      -42.08568206
  entropy T*S    EENTRO =        -0.00000000
  eigenvalues    EBANDS =        -0.51685687
  atomic energy  EATOM  =       203.40173791
  ---------------------------------------------------
  free energy    TOTEN  =       -12.96059968 eV

  energy without entropy =      -12.96059968  energy(sigma->0) =      -12.96059968
  exchange ACFDT corr.  =        -0.00000000  see jH, gK, PRB 81, 115126


--------------------------------------------------------------------------------------------------------




--------------------------------------- Iteration      1(  15)  ---------------------------------------


    POTLOK:  cpu time    0.0776: real time    0.0776
    SETDIJ:  cpu time    0.0448: real time    0.0449
    TRIAL :  cpu time    1.7195: real time    1.7204
    CORREC:  cpu time    1.8601: real time    1.8608
    CHARGE:  cpu time    0.0209: real time    0.0209
    --------------------------------------------
      LOOP:  cpu time    3.7231: real time    3.7247

 eigenvalue-minimisations  :     0
 total energy-change (2. order) :-0.1878945E-07  (-0.3750865E-08)
 number of electron       8.0000000 magnetization 
 augmentation part       -0.4343680 magnetization 

 Free energy of the ion-electron system (eV)
  ---------------------------------------------------
  alpha Z        PSCENC =         3.36414203
  Ewald energy   TEWEN  =      -228.56352493
  -Hartree energ DENC   =       -15.27102388
  -exchange      EXHF   =        11.32921415
  -V(xc)+E(xc)   XCENC  =       -14.35500688
  PAW double counting   =        69.73619790      -42.08545927
  entropy T*S    EENTRO =        -0.00000000
  eigenvalues    EBANDS =        -0.51687673
  atomic energy  EATOM  =       203.40173791
  ---------------------------------------------------
  free energy    TOTEN  =       -12.96059970 eV

  energy without entropy =      -12.96059970  energy(sigma->0) =      -12.96059970
  exchange ACFDT corr.  =        -0.00000000  see jH, gK, PRB 81, 115126


--------------------------------------------------------------------------------------------------------




--------------------------------------- Iteration      1(  16)  ---------------------------------------


    POTLOK:  cpu time    0.0775: real time    0.0777
    SETDIJ:  cpu time    0.0446: real time    0.0446
    TRIAL :  cpu time    1.7195: real time    1.7201
    CORREC:  cpu time    1.8592: real time    1.8602
    EDDIAG:  cpu time    1.7163: real time    1.7170
    CHARGE:  cpu time    0.0215: real time    0.0215
    --------------------------------------------
      LOOP:  cpu time    5.4388: real time    5.4412

 eigenvalue-minimisations  :     0
 total energy-change (2. order) :-0.3510110E-08  (-0.3310055E-09)
 number of electron       8.0000000 magnetization 
 augmentation part       -0.4343678 magnetization 

 Free energy of the ion-electron system (eV)
  ---------------------------------------------------
  alpha Z        PSCENC =         3.36414203
  Ewald energy   TEWEN  =      -228.56352493
  -Hartree energ DENC   =       -15.27106101
  -exchange      EXHF   =        11.32922190
  -V(xc)+E(xc)   XCENC  =       -14.35500459
  PAW double counting   =        69.73612881      -42.08539050
  entropy T*S    EENTRO =        -0.00000000
  eigenvalues    EBANDS =        -0.51684879
  atomic energy  EATOM  =       203.40173791
  ---------------------------------------------------
  free energy    TOTEN  =       -12.96059971 eV

  energy without entropy =      -12.96059971  energy(sigma->0) =      -12.96059971
  exchange ACFDT corr.  =        -0.00000000  see jH, gK, PRB 81, 115126


--------------------------------------------------------------------------------------------------------


  average scaling for gradient   0.8938


 average (electrostatic) potential at core
  the test charge radii are     0.9892
  (the norm of the test charge is              1.0000)
       1 -79.4533       2 -79.4533
 
 
 
 E-fermi :   5.9868     XC(G=0):  -7.8186     alpha+bet :-11.9845


 k-point     1 :       0.0000    0.0000    0.0000
  band No.  band energies     occupation 
      1      -7.7802      2.00000
      2       5.4759      2.00000
      3       5.4759      2.00000
      4       5.4759      2.00000
      5       8.8443      0.00000
      6       8.8443      0.00000
      7       8.8443      0.00000
      8       9.8881      0.00000

 k-point     2 :       0.2500    0.0000    0.0000
  band No.  band energies     occupation 
      1      -6.8934      2.00000
      2       1.2122      2.00000
      3       4.6652      2.00000
      4       4.6652      2.00000
      5       8.3107      0.00000
      6       9.8456      0.00000
      7       9.8456      0.00000
      8      13.5322      0.00000

 k-point     3 :       0.5000    0.0000    0.0000
  band No.  band energies     occupation 
      1      -5.1866      2.00000
      2      -2.2124      2.00000
      3       4.1663      2.00000
      4       4.1663      2.00000
      5       7.7920      0.00000
      6       9.6521      0.00000
      7       9.6521      0.00000
      8      14.1386      0.00000

 k-point     4 :       0.2500    0.2500    0.0000
  band No.  band energies     occupation 
      1      -6.5798      2.00000
      2       1.6780      2.00000
      3       3.4307      2.00000
      4       3.4307      2.00000
      5       7.2760      0.00000
      6       9.4124      0.00000
      7      12.2757      0.00000
      8      12.2757      0.00000

 k-point     5 :       0.5000    0.2500    0.0000
  band No.  band energies     occupation 
      1      -4.7561      2.00000
      2      -1.5511      2.00000
      3       1.6616      2.00000
      4       3.0694      2.00000
      5       7.6910      0.00000
      6      10.7873      0.00000
      7      12.2782      0.00000
      8      12.4263      0.00000

 k-point     6 :      -0.2500    0.2500    0.0000
  band No.  band energies     occupation 
      1      -5.5088      2.00000
      2      -0.5384      2.00000
      3       1.4201      2.00000
      4       4.0417      2.00000
      5       8.7153      0.00000
      6      11.2678      0.00000
      7      11.5032      0.00000
      8      12.6997      0.00000

 k-point     7 :       0.5000    0.5000    0.0000
  band No.  band energies     occupation 
      1      -3.1600      2.00000
      2      -3.1600      2.00000
      3       2.3437      2.00000
      4       2.3437      2.00000
      5       6.8186      0.00000
      6       6.8186      0.00000
      7      17.0148      0.00000
      8      17.0222      0.00000

 k-point     8 :      -0.2500    0.5000    0.2500
  band No.  band energies     occupation 
      1      -2.9771      2.00000
      2      -2.9771      2.00000
      3       1.3007      2.00000
      4       1.3007      2.00000
      5      10.5589      0.00000
      6      10.5589      0.00000
      7      11.4963      0.00000
      8      11.4963      0.00000


--------------------------------------------------------------------------------------------------------


 soft charge-density along one line, spin component           1
         0         1         2         3         4         5         6         7         8         9
 total charge-density along one line
 
 pseudopotential strength for first ion, spin component:           1
 17.849  -0.002  -0.000  -0.000  -0.000   0.000   0.000   0.000
 -0.002   0.005   0.000   0.000   0.000  -0.000  -0.000  -0.000
 -0.000   0.000   4.072  -0.000  -0.000  -0.003   0.000   0.000
 -0.000   0.000  -0.000   4.072  -0.000   0.000  -0.003   0.000
 -0.000   0.000  -0.000  -0.000   4.072   0.000   0.000  -0.003
  0.000  -0.000  -0.003   0.000   0.000   0.004  -0.000  -0.000
  0.000  -0.000   0.000  -0.003   0.000  -0.000   0.004  -0.000
  0.000  -0.000   0.000   0.000  -0.003  -0.000  -0.000   0.004
 total augmentation occupancy for first ion, spin component:           1
  1.400  -1.322  -0.000  -0.000   0.000  -0.000  -0.000  -0.000
 -1.322   1.521  -0.000  -0.000   0.000   0.000   0.000  -0.000
 -0.000  -0.000   1.034   0.000   0.000  -0.776  -0.000   0.000
 -0.000  -0.000   0.000   1.034   0.000   0.000  -0.776   0.000
  0.000   0.000   0.000   0.000   1.034   0.000   0.000  -0.776
 -0.000   0.000  -0.776   0.000   0.000   0.637  -0.000  -0.000
 -0.000   0.000  -0.000  -0.776   0.000  -0.000   0.637  -0.000
 -0.000  -0.000   0.000   0.000  -0.776  -0.000  -0.000   0.637


------------------------ aborting loop because EDIFF is reached ----------------------------------------


    FORLOC:  cpu time    0.0011: real time    0.0011
    FORHF :  cpu time    2.2589: real time    2.2597
    FORNL :  cpu time    0.0055: real time    0.0055
    STRESS:  cpu time    0.0291: real time    0.0291
    FORCOR:  cpu time    0.0791: real time    0.0791
    OFIELD:  cpu time    0.0002: real time    0.0002

  FORCE on cell =-STRESS in cart. coord.  units (eV):
  Direction    XX          YY          ZZ          XY          YZ          ZX
  --------------------------------------------------------------------------------------
  Alpha Z     3.36414     3.36414     3.36414
  Ewald     -76.18788   -76.18788   -76.18788    -0.00000     0.00000     0.00000
  Hartree     5.09035     5.09035     5.09035    -0.00000    -0.00000    -0.00000
  E(xc)     -19.65255   -19.65255   -19.65255     0.00000     0.00000     0.00000
  Local     -29.20153   -29.20153   -29.20153     0.00000     0.00000     0.00000
  n-local    75.69969    70.20879    75.39273    -0.92837     0.92837     2.61995
  augment   -10.69327   -10.69327   -10.69327    -0.00000    -0.00000    -0.00000
  Kinetic    57.81907    54.51807    58.60976    -1.12509     1.12509     4.12929
  Fock       -3.20181    -3.35145    -3.19294    -0.03170     0.03168     0.09823
  -------------------------------------------------------------------------------------
  Total       0.21991     0.21991     0.21991    -0.00000     0.00000     0.00000
  in kB       8.80266     8.80266     8.80266    -0.00000     0.00000     0.00000
  external pressure =        8.80 kB  Pullay stress =        0.00 kB


 VOLUME and BASIS-vectors are now :
 -----------------------------------------------------------------------------
  energy-cutoff  :      550.00
  volume of cell :       40.03
      direct lattice vectors                 reciprocal lattice vectors
     2.715000000  2.715000000  0.000000000     0.184162063  0.184162063 -0.184162063
     0.000000000  2.715000000  2.715000000    -0.184162063  0.184162063  0.184162063
     2.715000000  0.000000000  2.715000000     0.184162063 -0.184162063  0.184162063

  length of vectors
     3.839589822  3.839589822  3.839589822     0.318978049  0.318978049  0.318978049


 FORCES acting on ions:
    Electron-Ion                     Ewald-Force                    Non-Local-Force
 -----------------------------------------------------------------------------------------------
   0.511E-07 -.260E-07 0.205E-06   -.273E-14 0.111E-14 0.310E-14   0.132E-15 0.798E-16 0.104E-15
   -.120E-06 -.482E-07 -.211E-06   0.315E-14 -.993E-15 -.291E-14   -.132E-15 -.729E-16 -.132E-15
 -----------------------------------------------------------------------------------------------
   -.623E-07 -.786E-07 -.137E-07   0.422E-15 0.120E-15 0.187E-15   0.000E+00 0.694E-17 -.278E-16
 
 
 POSITION                                       TOTAL-FORCE (eV/Angst)
 -----------------------------------------------------------------------------------
      0.00000      0.00000      0.00000        -0.000000     -0.000000     -0.000000
      1.35750      1.35750      1.35750         0.000000      0.000000      0.000000
 -----------------------------------------------------------------------------------
    total drift:                               -0.000000     -0.000000     -0.000000


--------------------------------------------------------------------------------------------------------



  FREE ENERGIE OF THE ION-ELECTRON SYSTEM (eV)
  ---------------------------------------------------
  free  energy   TOTEN  =       -12.96059971 eV

  energy  without entropy=      -12.96059971  energy(sigma->0) =      -12.96059971
 


--------------------------------------------------------------------------------------------------------


    POTLOK:  cpu time    0.1223: real time    0.1224


--------------------------------------------------------------------------------------------------------


 writing wavefunctions
     LOOP+:  cpu time   45.7756: real time   45.8028
    4ORBIT:  cpu time    0.0000: real time    0.0000

 total amount of memory used by VASP MPI-rank0    38213. kBytes
=======================================================================

   base      :      30000. kBytes
   nonl-proj :        659. kBytes
   fftplans  :       1986. kBytes
   grid      :       3744. kBytes
   one-center:          6. kBytes
   HF        :          4. kBytes
   nonlr-proj:        872. kBytes
   wavefun   :        942. kBytes
 
  
  
 General timing and accounting informations for this job:
 ========================================================
  
                  Total CPU time used (sec):       50.811
                            User time (sec):       50.536
                          System time (sec):        0.275
                         Elapsed time (sec):       50.847
  
                   Maximum memory used (kb):      167352.
                   Average memory used (kb):           0.
  
                          Minor page faults:        39672
                          Major page faults:            0
                 Voluntary context switches:          539
