<?xml version="1.0" encoding="ISO-8859-1"?>
<modeling>
 <generator>
  <i name="program" type="string">vasp </i>
  <i name="version" type="string">5.4.4.18Apr17-6-g9f103f2a35  </i>
  <i name="subversion" type="string">(build Apr 19 2022 13:31:49) complex            parallel </i>
  <i name="platform" type="string">LinuxIFC </i>
  <i name="date" type="string">2023 12 27 </i>
  <i name="time" type="string">07:12:02 </i>
 </generator>
 <incar>
  <i type="string" name="SYSTEM"> Si</i>
  <i type="string" name="PREC">accurate</i>
  <i type="string" name="ALGO"> All</i>
  <i name="EDIFF">      0.00000001</i>
  <i type="int" name="ISIF">     2</i>
  <i type="int" name="ISYM">     3</i>
  <i name="ENCUT">    550.00000000</i>
  <i type="logical" name="LREAL"> F  </i>
  <i type="int" name="ISMEAR">     0</i>
  <i name="SIGMA">      0.10000000</i>
  <i type="logical" name="LCHARG"> F  </i>
  <v type="int" name="KPOINT_BSE">    -1     0     0     0</v>
  <i type="logical" name="LHFCALC"> T  </i>
  <i name="HFSCREEN">      0.20000000</i>
 </incar>
 <structure name="primitive_cell" >
  <crystal>
   <varray name="basis" >
    <v>       2.71500000       2.71500000       0.00000000 </v>
    <v>       0.00000000       2.71500000       2.71500000 </v>
    <v>       2.71500000       0.00000000       2.71500000 </v>
   </varray>
   <i name="volume">     40.02575175 </i>
   <varray name="rec_basis" >
    <v>       0.18416206       0.18416206      -0.18416206 </v>
    <v>      -0.18416206       0.18416206       0.18416206 </v>
    <v>       0.18416206      -0.18416206       0.18416206 </v>
   </varray>
  </crystal>
  <varray name="positions" >
   <v>       0.00000000       0.00000000       0.00000000 </v>
   <v>       0.25000000       0.25000000       0.25000000 </v>
  </varray>
 </structure>
 <varray name="primitive_index" >
  <v type="int" >        1 </v>
  <v type="int" >        2 </v>
 </varray>
 <kpoints>
  <generation param="Gamma">
   <v type="int" name="divisions">       4        4        4 </v>
   <v name="usershift">      0.00000000       0.00000000       0.00000000 </v>
   <v name="genvec1">      0.25000000       0.00000000       0.00000000 </v>
   <v name="genvec2">      0.00000000       0.25000000       0.00000000 </v>
   <v name="genvec3">      0.00000000       0.00000000       0.25000000 </v>
   <v name="shift">      0.00000000       0.00000000       0.00000000 </v>
  </generation>
  <varray name="kpointlist" >
   <v>       0.00000000       0.00000000       0.00000000 </v>
   <v>       0.25000000       0.00000000       0.00000000 </v>
   <v>       0.50000000       0.00000000       0.00000000 </v>
   <v>       0.25000000       0.25000000       0.00000000 </v>
   <v>       0.50000000       0.25000000       0.00000000 </v>
   <v>      -0.25000000       0.25000000       0.00000000 </v>
   <v>       0.50000000       0.50000000       0.00000000 </v>
   <v>      -0.25000000       0.50000000       0.25000000 </v>
  </varray>
  <varray name="weights" >
   <v>       0.01562500 </v>
   <v>       0.12500000 </v>
   <v>       0.06250000 </v>
   <v>       0.09375000 </v>
   <v>       0.37500000 </v>
   <v>       0.18750000 </v>
   <v>       0.04687500 </v>
   <v>       0.09375000 </v>
  </varray>
 </kpoints>
 <parameters>
  <separator name="general" >
   <i type="string" name="SYSTEM">Si</i>
   <i type="logical" name="LCOMPAT"> F  </i>
  </separator>
  <separator name="electronic" >
   <i type="string" name="PREC">accura</i>
   <i name="ENMAX">    550.00000000</i>
   <i name="ENAUG">    322.06900000</i>
   <i name="EDIFF">      0.00000001</i>
   <i type="int" name="IALGO">    58</i>
   <i type="int" name="IWAVPR">    10</i>
   <i type="int" name="NBANDS">     8</i>
   <i name="NELECT">      8.00000000</i>
   <i type="int" name="TURBO">     0</i>
   <i type="int" name="IRESTART">     0</i>
   <i type="int" name="NREBOOT">     0</i>
   <i type="int" name="NMIN">     0</i>
   <i name="EREF">      0.00000000</i>
   <separator name="electronic smearing" >
    <i type="int" name="ISMEAR">     0</i>
    <i name="SIGMA">      0.10000000</i>
    <i name="KSPACING">      0.50000000</i>
    <i type="logical" name="KGAMMA"> T  </i>
   </separator>
   <separator name="electronic projectors" >
    <i type="logical" name="LREAL"> F  </i>
    <v name="ROPT">      0.00000000</v>
    <i type="int" name="LMAXPAW">  -100</i>
    <i type="int" name="LMAXMIX">     2</i>
    <i type="logical" name="NLSPLINE"> F  </i>
   </separator>
   <separator name="electronic startup" >
    <i type="int" name="ISTART">     0</i>
    <i type="int" name="ICHARG">     2</i>
    <i type="int" name="INIWAV">     1</i>
   </separator>
   <separator name="electronic spin" >
    <i type="int" name="ISPIN">     1</i>
    <i type="logical" name="LNONCOLLINEAR"> F  </i>
    <v name="MAGMOM">      1.00000000      1.00000000</v>
    <i name="NUPDOWN">     -1.00000000</i>
    <i type="logical" name="LSORBIT"> F  </i>
    <v name="SAXIS">      0.00000000      0.00000000      1.00000000</v>
    <i type="logical" name="LSPIRAL"> F  </i>
    <v name="QSPIRAL">      0.00000000      0.00000000      0.00000000</v>
    <i type="logical" name="LZEROZ"> F  </i>
   </separator>
   <separator name="electronic exchange-correlation" >
    <i type="logical" name="LASPH"> F  </i>
    <i type="logical" name="LMETAGGA"> F  </i>
   </separator>
   <separator name="electronic convergence" >
    <i type="int" name="NELM">    60</i>
    <i type="int" name="NELMDL">     0</i>
    <i type="int" name="NELMIN">     2</i>
    <i name="ENINI">    550.00000000</i>
    <separator name="electronic convergence detail" >
     <i type="logical" name="LDIAG"> T  </i>
     <i type="logical" name="LSUBROT"> F  </i>
     <i name="WEIMIN">      0.00000000</i>
     <i name="EBREAK">      0.00000000</i>
     <i name="DEPER">      0.30000000</i>
     <i type="int" name="NRMM">     4</i>
     <i name="TIME">      0.40000000</i>
    </separator>
   </separator>
   <separator name="electronic mixer" >
    <i name="AMIX">      0.40000000</i>
    <i name="BMIX">      1.00000000</i>
    <i name="AMIN">      0.10000000</i>
    <i name="AMIX_MAG">      1.60000000</i>
    <i name="BMIX_MAG">      1.00000000</i>
    <separator name="electronic mixer details" >
     <i type="int" name="IMIX">     4</i>
     <i type="logical" name="MIXFIRST"> F  </i>
     <i type="int" name="MAXMIX">   -45</i>
     <i name="WC">    100.00000000</i>
     <i type="int" name="INIMIX">     1</i>
     <i type="int" name="MIXPRE">     1</i>
     <i type="int" name="MREMOVE">     5</i>
    </separator>
   </separator>
   <separator name="electronic dipolcorrection" >
    <i type="logical" name="LDIPOL"> F  </i>
    <i type="logical" name="LMONO"> F  </i>
    <i type="int" name="IDIPOL">     0</i>
    <i name="EPSILON">      1.00000000</i>
    <v name="DIPOL">   -100.00000000   -100.00000000   -100.00000000</v>
    <i name="EFIELD">      0.00000000</i>
   </separator>
  </separator>
  <separator name="grids" >
   <i type="int" name="NGX">    30</i>
   <i type="int" name="NGY">    30</i>
   <i type="int" name="NGZ">    30</i>
   <i type="int" name="NGXF">    60</i>
   <i type="int" name="NGYF">    60</i>
   <i type="int" name="NGZF">    60</i>
   <i type="logical" name="ADDGRID"> F  </i>
  </separator>
  <separator name="ionic" >
   <i type="int" name="NSW">     0</i>
   <i type="int" name="IBRION">    -1</i>
   <i type="int" name="MDALGO">     0</i>
   <i type="int" name="ISIF">     2</i>
   <i name="PSTRESS">      0.00000000</i>
   <i name="EDIFFG">      0.00000010</i>
   <i type="int" name="NFREE">     0</i>
   <i name="POTIM">      0.50000000</i>
   <i name="SMASS">     -3.00000000</i>
   <i name="SCALEE">      1.00000000</i>
  </separator>
  <separator name="ionic md" >
   <i name="TEBEG">      0.00010000</i>
   <i name="TEEND">      0.00010000</i>
   <i type="int" name="NBLOCK">     1</i>
   <i type="int" name="KBLOCK">     1</i>
   <i type="int" name="NPACO">   256</i>
   <i name="APACO">     16.00000000</i>
  </separator>
  <separator name="symmetry" >
   <i type="int" name="ISYM">     3</i>
   <i name="SYMPREC">      0.00001000</i>
  </separator>
  <separator name="dos" >
   <i type="int" name="LORBIT">     0</i>
   <v name="RWIGS">     -1.00000000</v>
   <i type="int" name="NEDOS">   301</i>
   <i name="EMIN">     10.00000000</i>
   <i name="EMAX">    -10.00000000</i>
   <i name="EFERMI">      0.00000000</i>
  </separator>
  <separator name="writing" >
   <i type="int" name="NWRITE">     2</i>
   <i type="logical" name="LWAVE"> T  </i>
   <i type="logical" name="LDOWNSAMPLE"> F  </i>
   <i type="logical" name="LCHARG"> F  </i>
   <i type="logical" name="LPARD"> F  </i>
   <i type="logical" name="LVTOT"> F  </i>
   <i type="logical" name="LVHAR"> F  </i>
   <i type="logical" name="LELF"> F  </i>
   <i type="logical" name="LOPTICS"> F  </i>
   <v name="STM">      0.00000000      0.00000000      0.00000000      0.00000000      0.00000000      0.00000000      0.00000000</v>
  </separator>
  <separator name="performance" >
   <i type="int" name="NPAR">     4</i>
   <i type="int" name="NSIM">     4</i>
   <i type="int" name="NBLK">    -1</i>
   <i type="logical" name="LPLANE"> T  </i>
   <i type="logical" name="LSCALAPACK"> T  </i>
   <i type="logical" name="LSCAAWARE"> F  </i>
   <i type="logical" name="LSCALU"> F  </i>
   <i type="logical" name="LASYNC"> F  </i>
   <i type="logical" name="LORBITALREAL"> F  </i>
  </separator>
  <separator name="miscellaneous" >
   <i type="int" name="IDIOT">     3</i>
   <i type="int" name="ISPECIAL">     0</i>
   <i type="logical" name="LMUSIC"> F  </i>
   <v name="POMASS">     28.08500000</v>
   <v name="DARWINR">      0.00000000</v>
   <v name="DARWINV">      1.00000000</v>
   <i type="logical" name="LCORR"> T  </i>
  </separator>
  <i type="logical" name="GGA_COMPAT"> T  </i>
  <i type="logical" name="LBERRY"> F  </i>
  <i type="int" name="ICORELEVEL">     0</i>
  <i type="logical" name="LDAU"> F  </i>
  <i type="int" name="I_CONSTRAINED_M">     0</i>
  <separator name="electronic exchange-correlation" >
   <i type="string" name="GGA">--</i>
   <i type="int" name="VOSKOWN">     0</i>
   <i type="logical" name="LHFCALC"> T  </i>
   <i type="string" name="PRECFOCK">normal</i>
   <i type="logical" name="LSYMGRAD"> F  </i>
   <i type="logical" name="LHFONE"> F  </i>
   <i type="logical" name="LRHFCALC"> F  </i>
   <i type="logical" name="LTHOMAS"> F  </i>
   <i type="logical" name="LMODELHF"> F  </i>
   <i name="ENCUT4O">     -1.00000000</i>
   <i type="int" name="EXXOEP">     0</i>
   <i type="int" name="FOURORBIT">     0</i>
   <i name="AEXX">      0.25000000</i>
   <i name="HFALPHA">     -1.00000000</i>
   <i name="MCALPHA">      0.00000000</i>
   <i name="ALDAX">      0.75000000</i>
   <i name="AGGAX">      0.75000000</i>
   <i name="ALDAC">      1.00000000</i>
   <i name="AGGAC">      1.00000000</i>
   <i type="int" name="NKREDX">     1</i>
   <i type="int" name="NKREDY">     1</i>
   <i type="int" name="NKREDZ">     1</i>
   <i type="logical" name="SHIFTRED"> F  </i>
   <i type="logical" name="ODDONLY"> F  </i>
   <i type="logical" name="EVENONLY"> F  </i>
   <i type="int" name="LMAXFOCK">     4</i>
   <i type="int" name="NMAXFOCKAE">     1</i>
   <i type="logical" name="LFOCKAEDFT"> F  </i>
   <i name="HFSCREEN">      0.20000000</i>
   <i name="HFSCREENC">      0.20000000</i>
   <i type="int" name="NBANDSGWLOW">     1</i>
  </separator>
  <separator name="vdW DFT" >
   <i type="logical" name="LUSE_VDW"> F  </i>
   <i name="Zab_VDW">     -0.84910000</i>
   <i name="PARAM1">      0.12340000</i>
   <i name="PARAM2">      1.00000000</i>
   <i name="PARAM3">      0.00000000</i>
  </separator>
  <separator name="model GW" >
   <i type="int" name="MODEL_GW">     0</i>
   <i name="MODEL_EPS0">     12.00772552</i>
   <i name="MODEL_ALPHA">      1.00000000</i>
  </separator>
  <separator name="linear response parameters" >
   <i type="logical" name="LEPSILON"> F  </i>
   <i type="logical" name="LRPA"> F  </i>
   <i type="logical" name="LNABLA"> F  </i>
   <i type="logical" name="LVEL"> F  </i>
   <i type="int" name="KINTER">     0</i>
   <i name="CSHIFT">      0.10000000</i>
   <i name="OMEGAMAX">     -1.00000000</i>
   <i name="DEG_THRESHOLD">      0.00200000</i>
   <i name="RTIME">     -0.10000000</i>
   <i name="WPLASMAI">      0.00000000</i>
   <v name="DFIELD">      0.00000000      0.00000000      0.00000000</v>
   <v name="WPLASMA">      0.00000000      0.00000000      0.00000000      0.00000000      0.00000000      0.00000000      0.00000000      0.00000000      0.00000000</v>
  </separator>
  <separator name="orbital magnetization" >
   <i type="logical" name="NUCIND"> F  </i>
   <v name="MAGPOS">      0.00000000      0.00000000      0.00000000</v>
   <i type="logical" name="LNICSALL"> T  </i>
   <i type="logical" name="ORBITALMAG"> F  </i>
   <i type="logical" name="LMAGBLOCH"> F  </i>
   <i type="logical" name="LCHIMAG"> F  </i>
   <i type="logical" name="LGAUGE"> T  </i>
   <i type="int" name="MAGATOM">     0</i>
   <v name="MAGDIPOL">      0.00000000      0.00000000      0.00000000</v>
   <v name="AVECCONST">      0.00000000      0.00000000      0.00000000</v>
  </separator>
  <separator name="response functions" >
   <i type="logical" name="LADDER"> F  </i>
   <i type="logical" name="LRPAFORCE"> F  </i>
   <i type="logical" name="LFXC"> F  </i>
   <i type="logical" name="LHARTREE"> T  </i>
   <i type="int" name="IBSE">     0</i>
   <v type="int" name="KPOINT">    -1     0     0     0</v>
   <i type="logical" name="LTCTE"> F  </i>
   <i type="logical" name="LTETE"> F  </i>
   <i type="logical" name="LTRIPLET"> F  </i>
   <i type="logical" name="LFXCEPS"> F  </i>
   <i type="logical" name="LFXHEG"> F  </i>
   <i type="int" name="NATURALO">     2</i>
   <i type="logical" name="L2ORDER"> F  </i>
   <i type="logical" name="LMP2LT"> F  </i>
   <i type="logical" name="LUSEW"> F  </i>
   <i name="ENCUTGW">     -2.00000000</i>
   <i name="ENCUTGWSOFT">     -2.00000000</i>
   <i name="ENCUTLF">     -1.00000000</i>
   <i type="int" name="LMAXMP2">    -1</i>
   <i name="SCISSOR">      0.00000000</i>
   <i type="int" name="NOMEGA">     0</i>
   <i type="int" name="NOMEGAR">     0</i>
   <i type="int" name="NBANDSGW">    -1</i>
   <i type="int" name="NBANDSO">    -1</i>
   <i type="int" name="NBANDSV">    -1</i>
   <i type="int" name="NELM">     1</i>
   <i type="int" name="NELMHF">     1</i>
   <i type="int" name="DIM">     3</i>
   <i type="int" name="ANTIRES">     0</i>
   <i name="OMEGAMAX">    -30.00000000</i>
   <i name="OMEGAMIN">    -30.00000000</i>
   <i name="OMEGATL">   -200.00000000</i>
   <i type="int" name="OMEGAGRID">   140</i>
   <i name="CSHIFT">     -0.10000000</i>
   <i type="logical" name="SELFENERGY"> F  </i>
   <i type="logical" name="LSPECTRAL"> F  </i>
   <i type="logical" name="LSPECTRALGW"> F  </i>
   <i type="logical" name="LSINGLES"> F  </i>
   <i type="logical" name="LFERMIGW"> F  </i>
   <i type="logical" name="ODDONLYGW"> F  </i>
   <i type="logical" name="EVENONLYGW"> F  </i>
   <i type="int" name="NKREDLFX">     1</i>
   <i type="int" name="NKREDLFY">     1</i>
   <i type="int" name="NKREDLFZ">     1</i>
   <i type="int" name="MAXMEM">  2800</i>
   <i type="int" name="TELESCOPE">     0</i>
   <i type="int" name="TAUPAR">     1</i>
   <i type="int" name="OMEGAPAR">    -1</i>
   <i name="LAMBDA">      1.00000000</i>
  </separator>
  <separator name="External order field" >
   <i name="OFIELD_KAPPA">      0.00000000</i>
   <v name="OFIELD_K">      0.00000000      0.00000000      0.00000000</v>
   <i name="OFIELD_Q6_NEAR">      0.00000000</i>
   <i name="OFIELD_Q6_FAR">      0.00000000</i>
   <i name="OFIELD_A">      0.00000000</i>
  </separator>
 </parameters>
 <atominfo>
  <atoms>       2 </atoms>
  <types>       1 </types>
  <array name="atoms" >
   <dimension dim="1">ion</dimension>
   <field type="string">element</field>
   <field type="int">atomtype</field>
   <set>
    <rc><c>Si</c><c>   1</c></rc>
    <rc><c>Si</c><c>   1</c></rc>
   </set>
  </array>
  <array name="atomtypes" >
   <dimension dim="1">type</dimension>
   <field type="int">atomspertype</field>
   <field type="string">element</field>
   <field>mass</field>
   <field>valence</field>
   <field type="string">pseudopotential</field>
   <set>
    <rc><c>   2</c><c>Si</c><c>     28.08500000</c><c>      4.00000000</c><c> PAW_PBE Si 05Jan2001                   </c></rc>
   </set>
  </array>
 </atominfo>
 <structure name="initialpos" >
  <crystal>
   <varray name="basis" >
    <v>       2.71500000       2.71500000       0.00000000 </v>
    <v>       0.00000000       2.71500000       2.71500000 </v>
    <v>       2.71500000       0.00000000       2.71500000 </v>
   </varray>
   <i name="volume">     40.02575175 </i>
   <varray name="rec_basis" >
    <v>       0.18416206       0.18416206      -0.18416206 </v>
    <v>      -0.18416206       0.18416206       0.18416206 </v>
    <v>       0.18416206      -0.18416206       0.18416206 </v>
   </varray>
  </crystal>
  <varray name="positions" >
   <v>       0.00000000       0.00000000       0.00000000 </v>
   <v>       0.25000000       0.25000000       0.25000000 </v>
  </varray>
 </structure>
 <calculation>
  <scstep>
   <time name="total">    0.16    0.16</time>
   <energy>
    <i name="alphaZ">      3.36414203 </i>
    <i name="ewald">   -228.56352493 </i>
    <i name="hartreedc">    -11.00108243 </i>
    <i name="XCdc">    -14.88407456 </i>
    <i name="pawpsdc">     60.33374234 </i>
    <i name="pawaedc">    -32.48933902 </i>
    <i name="eentropy">     -0.00000059 </i>
    <i name="bandstr">     38.44499239 </i>
    <i name="atom">    203.40173791 </i>
    <i name="e_fr_energy">     18.60659314 </i>
    <i name="e_wo_entrp">     18.60659374 </i>
    <i name="e_0_energy">     18.60659344 </i>
   </energy>
  </scstep>
  <scstep>
   <time name="total">    0.05    0.05</time>
   <energy>
    <i name="e_fr_energy">     -1.70753063 </i>
    <i name="e_wo_entrp">     -1.70752488 </i>
    <i name="e_0_energy">     -1.70752775 </i>
   </energy>
  </scstep>
  <scstep>
   <time name="total">    0.04    0.04</time>
   <energy>
    <i name="e_fr_energy">     -1.98352323 </i>
    <i name="e_wo_entrp">     -1.98352076 </i>
    <i name="e_0_energy">     -1.98352199 </i>
   </energy>
  </scstep>
  <scstep>
   <time name="total">    0.05    0.05</time>
   <energy>
    <i name="e_fr_energy">     -1.98504431 </i>
    <i name="e_wo_entrp">     -1.98504185 </i>
    <i name="e_0_energy">     -1.98504308 </i>
   </energy>
  </scstep>
  <scstep>
   <time name="total">    0.06    0.06</time>
   <energy>
    <i name="e_fr_energy">     -1.98504494 </i>
    <i name="e_wo_entrp">     -1.98504249 </i>
    <i name="e_0_energy">     -1.98504371 </i>
   </energy>
  </scstep>
  <scstep>
   <time name="total">    3.89    3.89</time>
   <energy>
    <i name="e_fr_energy">    -12.93427999 </i>
    <i name="e_wo_entrp">    -12.93427999 </i>
    <i name="e_0_energy">    -12.93427999 </i>
   </energy>
  </scstep>
  <scstep>
   <time name="total">    3.71    3.71</time>
   <energy>
    <i name="e_fr_energy">    -12.95428614 </i>
    <i name="e_wo_entrp">    -12.95428614 </i>
    <i name="e_0_energy">    -12.95428614 </i>
   </energy>
  </scstep>
  <scstep>
   <time name="total">    3.72    3.72</time>
   <energy>
    <i name="e_fr_energy">    -12.95909572 </i>
    <i name="e_wo_entrp">    -12.95909572 </i>
    <i name="e_0_energy">    -12.95909572 </i>
   </energy>
  </scstep>
  <scstep>
   <time name="total">    3.73    3.73</time>
   <energy>
    <i name="e_fr_energy">    -12.96042215 </i>
    <i name="e_wo_entrp">    -12.96042215 </i>
    <i name="e_0_energy">    -12.96042215 </i>
   </energy>
  </scstep>
  <scstep>
   <time name="total">    3.73    3.73</time>
   <energy>
    <i name="e_fr_energy">    -12.96057298 </i>
    <i name="e_wo_entrp">    -12.96057298 </i>
    <i name="e_0_energy">    -12.96057298 </i>
   </energy>
  </scstep>
  <scstep>
   <time name="total">    3.73    3.73</time>
   <energy>
    <i name="e_fr_energy">    -12.96059489 </i>
    <i name="e_wo_entrp">    -12.96059489 </i>
    <i name="e_0_energy">    -12.96059489 </i>
   </energy>
  </scstep>
  <scstep>
   <time name="total">    3.74    3.74</time>
   <energy>
    <i name="e_fr_energy">    -12.96059867 </i>
    <i name="e_wo_entrp">    -12.96059867 </i>
    <i name="e_0_energy">    -12.96059867 </i>
   </energy>
  </scstep>
  <scstep>
   <time name="total">    3.72    3.72</time>
   <energy>
    <i name="e_fr_energy">    -12.96059954 </i>
    <i name="e_wo_entrp">    -12.96059954 </i>
    <i name="e_0_energy">    -12.96059954 </i>
   </energy>
  </scstep>
  <scstep>
   <time name="total">    3.75    3.75</time>
   <energy>
    <i name="e_fr_energy">    -12.96059968 </i>
    <i name="e_wo_entrp">    -12.96059968 </i>
    <i name="e_0_energy">    -12.96059968 </i>
   </energy>
  </scstep>
  <scstep>
   <time name="total">    3.72    3.72</time>
   <energy>
    <i name="e_fr_energy">    -12.96059970 </i>
    <i name="e_wo_entrp">    -12.96059970 </i>
    <i name="e_0_energy">    -12.96059970 </i>
   </energy>
  </scstep>
  <scstep>
   <time name="total">    5.44    5.44</time>
   <energy>
    <i name="alphaZ">      3.36414203 </i>
    <i name="ewald">   -228.56352493 </i>
    <i name="hartreedc">    -15.27106101 </i>
    <i name="XCdc">    -14.35500459 </i>
    <i name="pawpsdc">     69.73612881 </i>
    <i name="pawaedc">    -42.08539050 </i>
    <i name="eentropy">     -0.00000000 </i>
    <i name="bandstr">     -0.51684879 </i>
    <i name="atom">    203.40173791 </i>
    <i name="e_fr_energy">    -12.96059971 </i>
    <i name="e_wo_entrp">    -12.96059971 </i>
    <i name="e_0_energy">    -12.96059971 </i>
   </energy>
  </scstep>
  <structure>
   <crystal>
    <varray name="basis" >
     <v>       2.71500000       2.71500000       0.00000000 </v>
     <v>       0.00000000       2.71500000       2.71500000 </v>
     <v>       2.71500000       0.00000000       2.71500000 </v>
    </varray>
    <i name="volume">     40.02575175 </i>
    <varray name="rec_basis" >
     <v>       0.18416206       0.18416206      -0.18416206 </v>
     <v>      -0.18416206       0.18416206       0.18416206 </v>
     <v>       0.18416206      -0.18416206       0.18416206 </v>
    </varray>
   </crystal>
   <varray name="positions" >
    <v>       0.00000000       0.00000000       0.00000000 </v>
    <v>       0.25000000       0.25000000       0.25000000 </v>
   </varray>
  </structure>
  <varray name="forces" >
   <v>      -0.00000000      -0.00000000      -0.00000000 </v>
   <v>       0.00000000       0.00000000       0.00000000 </v>
  </varray>
  <varray name="stress" >
   <v>       8.80265925      -0.00000000       0.00000000 </v>
   <v>      -0.00000000       8.80265925       0.00000000 </v>
   <v>       0.00000000       0.00000000       8.80265925 </v>
  </varray>
  <energy>
   <i name="e_fr_energy">    -12.96059971 </i>
   <i name="e_wo_entrp">    -12.96059971 </i>
   <i name="e_0_energy">     -0.00000000 </i>
  </energy>
  <time name="totalsc">   45.78   45.80</time>
  <eigenvalues>
   <array>
    <dimension dim="1">band</dimension>
    <dimension dim="2">kpoint</dimension>
    <dimension dim="3">spin</dimension>
    <field>eigene</field>
    <field>occ</field>
    <set>
     <set comment="spin 1">
      <set comment="kpoint 1">
       <r>   -7.7802    1.0000 </r>
       <r>    5.4759    1.0000 </r>
       <r>    5.4759    1.0000 </r>
       <r>    5.4759    1.0000 </r>
       <r>    8.8443    0.0000 </r>
       <r>    8.8443    0.0000 </r>
       <r>    8.8443    0.0000 </r>
       <r>    9.8881    0.0000 </r>
      </set>
      <set comment="kpoint 2">
       <r>   -6.8934    1.0000 </r>
       <r>    1.2122    1.0000 </r>
       <r>    4.6652    1.0000 </r>
       <r>    4.6652    1.0000 </r>
       <r>    8.3107    0.0000 </r>
       <r>    9.8456    0.0000 </r>
       <r>    9.8456    0.0000 </r>
       <r>   13.5322    0.0000 </r>
      </set>
      <set comment="kpoint 3">
       <r>   -5.1866    1.0000 </r>
       <r>   -2.2124    1.0000 </r>
       <r>    4.1663    1.0000 </r>
       <r>    4.1663    1.0000 </r>
       <r>    7.7920    0.0000 </r>
       <r>    9.6521    0.0000 </r>
       <r>    9.6521    0.0000 </r>
       <r>   14.1386    0.0000 </r>
      </set>
      <set comment="kpoint 4">
       <r>   -6.5798    1.0000 </r>
       <r>    1.6780    1.0000 </r>
       <r>    3.4307    1.0000 </r>
       <r>    3.4307    1.0000 </r>
       <r>    7.2760    0.0000 </r>
       <r>    9.4124    0.0000 </r>
       <r>   12.2757    0.0000 </r>
       <r>   12.2757    0.0000 </r>
      </set>
      <set comment="kpoint 5">
       <r>   -4.7561    1.0000 </r>
       <r>   -1.5511    1.0000 </r>
       <r>    1.6616    1.0000 </r>
       <r>    3.0694    1.0000 </r>
       <r>    7.6910    0.0000 </r>
       <r>   10.7873    0.0000 </r>
       <r>   12.2782    0.0000 </r>
       <r>   12.4263    0.0000 </r>
      </set>
      <set comment="kpoint 6">
       <r>   -5.5088    1.0000 </r>
       <r>   -0.5384    1.0000 </r>
       <r>    1.4201    1.0000 </r>
       <r>    4.0417    1.0000 </r>
       <r>    8.7153    0.0000 </r>
       <r>   11.2678    0.0000 </r>
       <r>   11.5032    0.0000 </r>
       <r>   12.6997    0.0000 </r>
      </set>
      <set comment="kpoint 7">
       <r>   -3.1600    1.0000 </r>
       <r>   -3.1600    1.0000 </r>
       <r>    2.3437    1.0000 </r>
       <r>    2.3437    1.0000 </r>
       <r>    6.8186    0.0000 </r>
       <r>    6.8186    0.0000 </r>
       <r>   17.0148    0.0000 </r>
       <r>   17.0222    0.0000 </r>
      </set>
      <set comment="kpoint 8">
       <r>   -2.9771    1.0000 </r>
       <r>   -2.9771    1.0000 </r>
       <r>    1.3007    1.0000 </r>
       <r>    1.3007    1.0000 </r>
       <r>   10.5589    0.0000 </r>
       <r>   10.5589    0.0000 </r>
       <r>   11.4963    0.0000 </r>
       <r>   11.4963    0.0000 </r>
      </set>
     </set>
    </set>
   </array>
  </eigenvalues>
  <separator name="orbital magnetization" >
   <v name="MAGDIPOLOUT">      0.00000000      0.00000000      0.00000000</v>
  </separator>
  <dos>
   <i name="efermi">      5.98656909 </i>
   <total>
    <array>
     <dimension dim="1">gridpoints</dimension>
     <dimension dim="2">spin</dimension>
     <field>energy</field>
     <field>total</field>
     <field>integrated</field>
     <set>
      <set comment="spin 1">
       <r>    -9.0203     0.0000     0.0000 </r>
       <r>    -8.9294     0.0000     0.0000 </r>
       <r>    -8.8384     0.0000     0.0000 </r>
       <r>    -8.7475     0.0000     0.0000 </r>
       <r>    -8.6565     0.0000     0.0000 </r>
       <r>    -8.5656     0.0000     0.0000 </r>
       <r>    -8.4746     0.0000     0.0000 </r>
       <r>    -8.3837     0.0000     0.0000 </r>
       <r>    -8.2928     0.0000     0.0000 </r>
       <r>    -8.2018     0.0000     0.0000 </r>
       <r>    -8.1109     0.0000     0.0000 </r>
       <r>    -8.0199     0.0001     0.0000 </r>
       <r>    -7.9290     0.0060     0.0006 </r>
       <r>    -7.8380     0.0649     0.0065 </r>
       <r>    -7.7471     0.1627     0.0212 </r>
       <r>    -7.6562     0.0963     0.0300 </r>
       <r>    -7.5652     0.0132     0.0312 </r>
       <r>    -7.4743     0.0004     0.0312 </r>
       <r>    -7.3833     0.0000     0.0312 </r>
       <r>    -7.2924     0.0000     0.0313 </r>
       <r>    -7.2015     0.0000     0.0313 </r>
       <r>    -7.1105     0.0029     0.0315 </r>
       <r>    -7.0196     0.0992     0.0405 </r>
       <r>    -6.9286     0.7475     0.1085 </r>
       <r>    -6.8377     1.3073     0.2274 </r>
       <r>    -6.7467     0.5585     0.2782 </r>
       <r>    -6.6558     0.3238     0.3076 </r>
       <r>    -6.5649     0.9134     0.3907 </r>
       <r>    -6.4739     0.7198     0.4562 </r>
       <r>    -6.3830     0.1328     0.4682 </r>
       <r>    -6.2920     0.0055     0.4687 </r>
       <r>    -6.2011     0.0000     0.4687 </r>
       <r>    -6.1101     0.0000     0.4687 </r>
       <r>    -6.0192     0.0000     0.4688 </r>
       <r>    -5.9283     0.0000     0.4688 </r>
       <r>    -5.8373     0.0000     0.4688 </r>
       <r>    -5.7464     0.0016     0.4689 </r>
       <r>    -5.6554     0.0769     0.4759 </r>
       <r>    -5.5645     0.8097     0.5495 </r>
       <r>    -5.4736     1.9606     0.7278 </r>
       <r>    -5.3826     1.1252     0.8302 </r>
       <r>    -5.2917     0.2393     0.8519 </r>
       <r>    -5.2007     0.4882     0.8963 </r>
       <r>    -5.1098     0.6057     0.9514 </r>
       <r>    -5.0188     0.1795     0.9677 </r>
       <r>    -4.9279     0.0736     0.9744 </r>
       <r>    -4.8370     0.9814     1.0637 </r>
       <r>    -4.7460     3.5496     1.3865 </r>
       <r>    -4.6551     3.0233     1.6614 </r>
       <r>    -4.5641     0.6032     1.7163 </r>
       <r>    -4.4732     0.0270     1.7187 </r>
       <r>    -4.3822     0.0003     1.7187 </r>
       <r>    -4.2913     0.0000     1.7187 </r>
       <r>    -4.2004     0.0000     1.7187 </r>
       <r>    -4.1094     0.0000     1.7188 </r>
       <r>    -4.0185     0.0000     1.7188 </r>
       <r>    -3.9275     0.0000     1.7188 </r>
       <r>    -3.8366     0.0000     1.7188 </r>
       <r>    -3.7457     0.0000     1.7188 </r>
       <r>    -3.6547     0.0000     1.7188 </r>
       <r>    -3.5638     0.0000     1.7188 </r>
       <r>    -3.4728     0.0000     1.7188 </r>
       <r>    -3.3819     0.0017     1.7189 </r>
       <r>    -3.2909     0.0644     1.7248 </r>
       <r>    -3.2000     0.5268     1.7727 </r>
       <r>    -3.1091     1.1113     1.8737 </r>
       <r>    -3.0181     1.4706     2.0075 </r>
       <r>    -2.9272     2.0201     2.1912 </r>
       <r>    -2.8362     0.8948     2.2726 </r>
       <r>    -2.7453     0.0933     2.2811 </r>
       <r>    -2.6543     0.0021     2.2812 </r>
       <r>    -2.5634     0.0000     2.2813 </r>
       <r>    -2.4725     0.0002     2.2813 </r>
       <r>    -2.3815     0.0114     2.2823 </r>
       <r>    -2.2906     0.1732     2.2980 </r>
       <r>    -2.1996     0.6008     2.3527 </r>
       <r>    -2.1087     0.4910     2.3973 </r>
       <r>    -2.0178     0.0939     2.4059 </r>
       <r>    -1.9268     0.0040     2.4062 </r>
       <r>    -1.8359     0.0003     2.4063 </r>
       <r>    -1.7449     0.0251     2.4085 </r>
       <r>    -1.6540     0.5760     2.4609 </r>
       <r>    -1.5630     2.9709     2.7311 </r>
       <r>    -1.4721     3.5876     3.0574 </r>
       <r>    -1.3812     1.0204     3.1502 </r>
       <r>    -1.2902     0.0660     3.1562 </r>
       <r>    -1.1993     0.0009     3.1562 </r>
       <r>    -1.1083     0.0000     3.1562 </r>
       <r>    -1.0174     0.0000     3.1563 </r>
       <r>    -0.9265     0.0000     3.1563 </r>
       <r>    -0.8355     0.0001     3.1563 </r>
       <r>    -0.7446     0.0073     3.1569 </r>
       <r>    -0.6536     0.2056     3.1756 </r>
       <r>    -0.5627     1.2954     3.2934 </r>
       <r>    -0.4717     1.9026     3.4664 </r>
       <r>    -0.3808     0.6594     3.5264 </r>
       <r>    -0.2899     0.0523     3.5312 </r>
       <r>    -0.1989     0.0009     3.5312 </r>
       <r>    -0.1080     0.0000     3.5312 </r>
       <r>    -0.0170     0.0000     3.5312 </r>
       <r>     0.0739     0.0000     3.5312 </r>
       <r>     0.1649     0.0000     3.5312 </r>
       <r>     0.2558     0.0000     3.5312 </r>
       <r>     0.3467     0.0000     3.5312 </r>
       <r>     0.4377     0.0000     3.5312 </r>
       <r>     0.5286     0.0000     3.5312 </r>
       <r>     0.6196     0.0000     3.5312 </r>
       <r>     0.7105     0.0000     3.5313 </r>
       <r>     0.8014     0.0000     3.5313 </r>
       <r>     0.8924     0.0000     3.5313 </r>
       <r>     0.9833     0.0017     3.5314 </r>
       <r>     1.0743     0.0715     3.5379 </r>
       <r>     1.1652     0.7383     3.6050 </r>
       <r>     1.2562     2.3365     3.8175 </r>
       <r>     1.3471     3.2148     4.1099 </r>
       <r>     1.4380     2.8822     4.3720 </r>
       <r>     1.5290     1.7807     4.5339 </r>
       <r>     1.6199     2.6784     4.7775 </r>
       <r>     1.7109     4.9374     5.2265 </r>
       <r>     1.8018     2.3861     5.4435 </r>
       <r>     1.8928     0.2704     5.4681 </r>
       <r>     1.9837     0.0069     5.4687 </r>
       <r>     2.0746     0.0002     5.4688 </r>
       <r>     2.1656     0.0120     5.4699 </r>
       <r>     2.2565     0.2123     5.4892 </r>
       <r>     2.3475     0.8504     5.5665 </r>
       <r>     2.4384     0.8010     5.6393 </r>
       <r>     2.5293     0.1770     5.6554 </r>
       <r>     2.6203     0.0088     5.6562 </r>
       <r>     2.7112     0.0001     5.6563 </r>
       <r>     2.8022     0.0006     5.6563 </r>
       <r>     2.8931     0.0515     5.6610 </r>
       <r>     2.9841     0.8849     5.7415 </r>
       <r>     3.0750     3.4449     6.0548 </r>
       <r>     3.1659     3.1548     6.3417 </r>
       <r>     3.2569     0.7059     6.4059 </r>
       <r>     3.3478     0.5013     6.4514 </r>
       <r>     3.4388     1.7522     6.6108 </r>
       <r>     3.5297     1.5415     6.7510 </r>
       <r>     3.6207     0.3179     6.7799 </r>
       <r>     3.7116     0.0148     6.7812 </r>
       <r>     3.8025     0.0016     6.7814 </r>
       <r>     3.8935     0.0731     6.7880 </r>
       <r>     3.9844     0.8011     6.8609 </r>
       <r>     4.0754     2.2138     7.0622 </r>
       <r>     4.1663     2.2484     7.2667 </r>
       <r>     4.2572     1.2576     7.3810 </r>
       <r>     4.3482     0.2633     7.4050 </r>
       <r>     4.4391     0.0175     7.4066 </r>
       <r>     4.5301     0.1503     7.4203 </r>
       <r>     4.6210     1.3088     7.5393 </r>
       <r>     4.7120     2.6376     7.7792 </r>
       <r>     4.8029     1.2561     7.8934 </r>
       <r>     4.8938     0.1382     7.9059 </r>
       <r>     4.9848     0.0033     7.9062 </r>
       <r>     5.0757     0.0000     7.9062 </r>
       <r>     5.1667     0.0000     7.9063 </r>
       <r>     5.2576     0.0010     7.9063 </r>
       <r>     5.3486     0.0360     7.9096 </r>
       <r>     5.4395     0.2759     7.9347 </r>
       <r>     5.5304     0.4911     7.9794 </r>
       <r>     5.6214     0.2065     7.9981 </r>
       <r>     5.7123     0.0200     8.0000 </r>
       <r>     5.8033     0.0004     8.0000 </r>
       <r>     5.8942     0.0000     8.0000 </r>
       <r>     5.9851     0.0000     8.0000 </r>
       <r>     6.0761     0.0000     8.0000 </r>
       <r>     6.1670     0.0000     8.0000 </r>
       <r>     6.2580     0.0000     8.0000 </r>
       <r>     6.3489     0.0000     8.0000 </r>
       <r>     6.4399     0.0000     8.0000 </r>
       <r>     6.5308     0.0000     8.0000 </r>
       <r>     6.6217     0.0055     8.0005 </r>
       <r>     6.7127     0.1328     8.0126 </r>
       <r>     6.8036     0.7196     8.0780 </r>
       <r>     6.8946     0.9124     8.1610 </r>
       <r>     6.9855     0.2727     8.1858 </r>
       <r>     7.0765     0.0234     8.1879 </r>
       <r>     7.1674     0.1239     8.1992 </r>
       <r>     7.2583     0.6994     8.2628 </r>
       <r>     7.3493     0.9248     8.3469 </r>
       <r>     7.4402     0.2899     8.3733 </r>
       <r>     7.5312     0.1170     8.3839 </r>
       <r>     7.6221     1.2726     8.4996 </r>
       <r>     7.7130     3.9423     8.8582 </r>
       <r>     7.8040     3.2595     9.1546 </r>
       <r>     7.8949     0.9330     9.2394 </r>
       <r>     7.9859     0.1120     9.2496 </r>
       <r>     8.0768     0.0056     9.2501 </r>
       <r>     8.1678     0.0582     9.2554 </r>
       <r>     8.2587     0.5758     9.3078 </r>
       <r>     8.3496     1.3141     9.4273 </r>
       <r>     8.4406     0.7089     9.4917 </r>
       <r>     8.5315     0.1077     9.5015 </r>
       <r>     8.6225     0.3744     9.5356 </r>
       <r>     8.7134     1.6602     9.6866 </r>
       <r>     8.8044     1.9385     9.8629 </r>
       <r>     8.8953     0.8992     9.9446 </r>
       <r>     8.9862     0.2419     9.9666 </r>
       <r>     9.0772     0.0228     9.9687 </r>
       <r>     9.1681     0.0011     9.9688 </r>
       <r>     9.2591     0.0305     9.9716 </r>
       <r>     9.3500     0.3580    10.0041 </r>
       <r>     9.4409     0.9687    10.0922 </r>
       <r>     9.5319     0.7326    10.1589 </r>
       <r>     9.6228     0.9062    10.2413 </r>
       <r>     9.7138     1.4610    10.3741 </r>
       <r>     9.8047     1.8987    10.5468 </r>
       <r>     9.8957     2.8205    10.8033 </r>
       <r>     9.9866     1.3205    10.9234 </r>
       <r>    10.0775     0.1510    10.9371 </r>
       <r>    10.1685     0.0041    10.9375 </r>
       <r>    10.2594     0.0001    10.9375 </r>
       <r>    10.3504     0.0065    10.9381 </r>
       <r>    10.4413     0.1923    10.9556 </r>
       <r>    10.5323     1.2596    11.0701 </r>
       <r>    10.6232     2.0006    11.2521 </r>
       <r>    10.7141     1.8468    11.4200 </r>
       <r>    10.8051     3.7585    11.7618 </r>
       <r>    10.8960     2.7941    12.0159 </r>
       <r>    10.9870     0.4926    12.0607 </r>
       <r>    11.0779     0.0342    12.0638 </r>
       <r>    11.1688     0.3185    12.0928 </r>
       <r>    11.2598     1.5451    12.2333 </r>
       <r>    11.3507     1.8938    12.4055 </r>
       <r>    11.4417     2.0208    12.5893 </r>
       <r>    11.5326     3.9271    12.9465 </r>
       <r>    11.6236     2.3191    13.1574 </r>
       <r>    11.7145     0.3214    13.1866 </r>
       <r>    11.8054     0.0099    13.1875 </r>
       <r>    11.8964     0.0001    13.1875 </r>
       <r>    11.9873     0.0003    13.1875 </r>
       <r>    12.0783     0.0299    13.1902 </r>
       <r>    12.1692     0.7522    13.2587 </r>
       <r>    12.2602     4.2935    13.6491 </r>
       <r>    12.3511     6.6443    14.2534 </r>
       <r>    12.4420     5.3787    14.7425 </r>
       <r>    12.5330     3.0131    15.0165 </r>
       <r>    12.6239     1.0692    15.1138 </r>
       <r>    12.7149     1.8477    15.2818 </r>
       <r>    12.8058     1.4368    15.4125 </r>
       <r>    12.8967     0.2642    15.4365 </r>
       <r>    12.9877     0.0109    15.4375 </r>
       <r>    13.0786     0.0001    15.4375 </r>
       <r>    13.1696     0.0000    15.4375 </r>
       <r>    13.2605     0.0002    15.4375 </r>
       <r>    13.3515     0.0144    15.4388 </r>
       <r>    13.4424     0.2662    15.4630 </r>
       <r>    13.5333     1.1119    15.5641 </r>
       <r>    13.6243     1.0915    15.6634 </r>
       <r>    13.7152     0.2516    15.6863 </r>
       <r>    13.8062     0.0131    15.6875 </r>
       <r>    13.8971     0.0006    15.6875 </r>
       <r>    13.9881     0.0224    15.6896 </r>
       <r>    14.0790     0.2514    15.7124 </r>
       <r>    14.1699     0.6481    15.7714 </r>
       <r>    14.2609     0.3946    15.8073 </r>
       <r>    14.3518     0.0559    15.8123 </r>
       <r>    14.4428     0.0018    15.8125 </r>
       <r>    14.5337     0.0000    15.8125 </r>
       <r>    14.6246     0.0000    15.8125 </r>
       <r>    14.7156     0.0000    15.8125 </r>
       <r>    14.8065     0.0000    15.8125 </r>
       <r>    14.8975     0.0000    15.8125 </r>
       <r>    14.9884     0.0000    15.8125 </r>
       <r>    15.0794     0.0000    15.8125 </r>
       <r>    15.1703     0.0000    15.8125 </r>
       <r>    15.2612     0.0000    15.8125 </r>
       <r>    15.3522     0.0000    15.8125 </r>
       <r>    15.4431     0.0000    15.8125 </r>
       <r>    15.5341     0.0000    15.8125 </r>
       <r>    15.6250     0.0000    15.8125 </r>
       <r>    15.7160     0.0000    15.8125 </r>
       <r>    15.8069     0.0000    15.8125 </r>
       <r>    15.8978     0.0000    15.8125 </r>
       <r>    15.9888     0.0000    15.8125 </r>
       <r>    16.0797     0.0000    15.8125 </r>
       <r>    16.1707     0.0000    15.8125 </r>
       <r>    16.2616     0.0000    15.8125 </r>
       <r>    16.3525     0.0000    15.8125 </r>
       <r>    16.4435     0.0000    15.8125 </r>
       <r>    16.5344     0.0000    15.8125 </r>
       <r>    16.6254     0.0000    15.8125 </r>
       <r>    16.7163     0.0000    15.8125 </r>
       <r>    16.8073     0.0029    15.8128 </r>
       <r>    16.8982     0.0891    15.8209 </r>
       <r>    16.9891     0.6073    15.8761 </r>
       <r>    17.0801     0.9661    15.9640 </r>
       <r>    17.1710     0.3641    15.9971 </r>
       <r>    17.2620     0.0316    15.9999 </r>
       <r>    17.3529     0.0006    16.0000 </r>
       <r>    17.4439     0.0000    16.0000 </r>
       <r>    17.5348     0.0000    16.0000 </r>
       <r>    17.6257     0.0000    16.0000 </r>
       <r>    17.7167     0.0000    16.0000 </r>
       <r>    17.8076     0.0000    16.0000 </r>
       <r>    17.8986     0.0000    16.0000 </r>
       <r>    17.9895     0.0000    16.0000 </r>
       <r>    18.0804     0.0000    16.0000 </r>
       <r>    18.1714     0.0000    16.0000 </r>
       <r>    18.2623     0.0000    16.0000 </r>
      </set>
     </set>
    </array>
   </total>
  </dos>
 </calculation>
 <structure name="finalpos" >
  <crystal>
   <varray name="basis" >
    <v>       2.71500000       2.71500000       0.00000000 </v>
    <v>       0.00000000       2.71500000       2.71500000 </v>
    <v>       2.71500000       0.00000000       2.71500000 </v>
   </varray>
   <i name="volume">     40.02575175 </i>
   <varray name="rec_basis" >
    <v>       0.18416206       0.18416206      -0.18416206 </v>
    <v>      -0.18416206       0.18416206       0.18416206 </v>
    <v>       0.18416206      -0.18416206       0.18416206 </v>
   </varray>
  </crystal>
  <varray name="positions" >
   <v>       0.00000000       0.00000000       0.00000000 </v>
   <v>       0.25000000       0.25000000       0.25000000 </v>
  </varray>
 </structure>
</modeling>
